<?xml version="1.0"?>
<VTKFile type="UnstructuredGrid" version="0.1" byte_order="LittleEndian">
  <UnstructuredGrid>
    <Piece NumberOfCells="8376" NumberOfPoints="2379">
      <PointData Scalars="solution">
        <DataArray type="Float32" Name="solution" NumberOfComponents="1" format="ascii">
          1.1924 1.19163 1.19117 1.18993 1.19842 1.19477 1.19994 1.20202 1.20978 1.2152 1.21172 1.22561
          1.23104 1.23947 1.24826 1.26122 1.24808 1.27716 1.26097 1.25513 1.22314 1.19803 1.21307 1.24231
          1.21059 1.23426 1.21906 1.1854 1.21606 1.18362 1.1892 1.1871 1.18879 1.18408 1.18834 1.18955
          1.1919 1.19042 1.18247 1.17711 1.17572 1.19392 1.19706 1.19908 1.20301 1.20099 1.19094 1.18804
          1.19413 1.16174 1.16719 1.17963 1.16675 1.17334 1.17339 1.16315 1.19218 1.17973 1.21579 1.21192
          1.21886 1.2089 1.23445 1.20417 1.23574 1.24221 1.26223 1.25108 1.25704 1.24965 1.21784 1.23661
          1.22052 1.19877 1.2098 1.21123 1.17914 1.18591 1.21601 1.22366 1.19459 1.18509 1.23676 1.17578
          1.15608 1.15352 1.14667 1.13865 1.13305 1.14331 1.16037 1.15332 1.14063 1.14645 1.17177 1.12733
          1.12127 1.11889 1.10611 1.12767 1.10709 1.12129 1.11269 1.15655 1.18199 1.16153 1.1506 1.1641
          1.20671 1.18248 1.13217 1.13378 1.13844 1.12139 1.11127 1.11589 1.15835 1.12352 1.11055 1.1575
          1.17935 1.13068 1.28954 1.26876 1.312 1.30312 1.32432 1.29501 1.35783 1.33789 1.36435 1.43207
          1.3204 1.36805 1.36897 1.26803 1.25004 1.25101 1.29423 1.31828 1.26711 1.27937 1.35745 1.27946
          1.27006 1.29792 1.26151 1.31194 1.30848 1.34231 1.35227 1.34664 1.29948 1.33806 1.3001 1.289
          1.32364 1.42799 1.36306 1.43785 1.36985 1.24802 1.24832 1.26851 1.29468 1.25082 1.32034 1.39189
          1.36361 1.51398 1.44257 1.50423 1.49208 1.55609 1.46821 1.39029 1.48863 1.4689 1.54311 1.56813
          1.53619 1.59183 1.57718 1.32349 1.24436 1.35359 1.49661 1.27282 1.20939 1.18174 1.20676 1.19324
          1.25381 1.21688 1.20593 1.2155 1.22784 1.17208 1.14534 1.17812 1.17201 1.14375 1.15587 1.13939
          1.17112 1.20545 1.2041 1.16834 1.22907 1.21021 1.1921 1.22337 1.21248 1.19374 1.1379 1.15301
          1.12362 1.16332 1.17104 1.13398 1.17065 1.16997 1.14345 1.22206 1.22218 1.25045 1.2238 1.12544
          1.12335 1.19099 1.15414 1.17304 1.12394 1.15718 1.09352 1.09636 1.084 1.07663 1.0708 1.10314
          1.08398 1.09589 1.07847 1.07324 1.09794 1.0614 1.058 1.05037 1.03915 1.05216 1.04815 1.03218
          1.05663 1.08814 1.07918 1.10497 1.07319 1.0741 1.0633 1.03899 1.0461 1.05437 1.0705 1.09645
          1.04698 1.04072 1.09811 1.08692 1.09722 1.11668 1.06093 1.08262 1.07243 1.05046 1.06694 1.03044
          1.01767 1.00536 1.02493 1.00775 1.03608 1.01086 0.997058 0.987782 0.987459 0.978143 0.985857 0.990225
          1.01719 1.0234 1.02673 1.03518 1.01208 1.00296 0.985759 0.991806 0.996385 0.978728 0.997898 0.982421
          1.00067 1.0094 0.983099 1.02831 1.03766 1.01069 0.993929 0.99218 1.08774 1.05844 1.07051 1.11744
          1.13544 1.11531 1.13003 1.10939 1.09486 1.08814 1.09349 1.08431 1.0765 1.06238 1.05834 1.1151
          1.12187 1.10359 1.08213 1.09247 1.11709 1.14138 1.03938 1.07553 1.04669 1.05827 1.06749 1.08768
          1.08882 1.04338 1.05803 1.1078 1.11718 1.09697 1.11692 1.11812 1.1206 1.0459 1.07021 1.06473
          1.03095 1.0091 1.01357 1.03634 1.02471 0.989306 0.973691 0.99544 0.994269 0.983395 1.00869 1.03347
          1.06819 1.0492 1.02853 1.03647 1.01001 0.982875 1.00741 0.997162 1.00841 0.984262 1.04806 1.0292
          1.03656 1.00455 1.02805 1.03374 1.02267 0.990375 1.00841 0.993808 1.04428 1.02678 1.04833 1.02114
          0.995868 0.995827 1.19204 1.18641 1.18687 1.19323 1.18525 1.17844 1.17985 1.19681 1.20597 1.20373
          1.19085 1.19368 1.197 1.17609 1.16576 1.16939 1.18238 1.18257 1.19481 1.16986 1.17605 1.16435
          1.21856 1.22088 1.20778 1.23919 1.2558 1.2672 1.24422 1.22133 1.18223 1.18729 1.24026 1.20089
          1.18753 1.21321 1.21926 1.15862 1.1491 1.15603 1.14099 1.13532 1.14571 1.16295 1.17437 1.1559
          1.14299 1.14886 1.12952 1.12338 1.12096 1.10801 1.12988 1.1234 1.10899 1.11464 1.16617 1.15945
          1.1775 1.18448 1.16306 1.15286 1.1407 1.13445 1.13583 1.12356 1.11312 1.1185 1.15999 1.12124
          1.1545 1.13264 1.12527 1.28534 1.27544 1.3013 1.31377 1.36082 1.31426 1.35712 1.34384 1.34768
          1.42873 1.26742 1.30957 1.25353 1.28427 1.26675 1.49303 1.51517 1.36751 1.48464 1.39512 1.43615
          1.36038 1.34185 1.38013 1.50732 1.56246 1.36539 1.44519 1.36632 1.43934 1.3126 1.32251 1.26897
          1.36188 1.32971 1.30059 1.28341 1.29424 1.29988 1.32276 1.31003 1.2882 1.32374 1.2854 1.27447
          1.26789 1.25837 1.24633 1.28076 1.25817 1.25035 1.26357 1.23901 1.24443 1.2472 1.227 1.23302
          1.20865 1.20941 1.1699 1.18374 1.22795 1.23886 1.23182 1.22509 1.19411 1.1401 1.15458 1.18055
          1.17217 1.13533 1.24341 1.21614 1.2665 1.19139 1.23021 1.17106 1.11567 1.14212 1.18775 1.2044
          1.17161 1.13128 1.25355 1.20858 1.21551 1.18051 1.18488 1.18468 1.17377 1.17662 1.15516 1.14262
          1.1704 1.14459 1.24554 1.22824 1.23591 1.22322 1.22246 1.21059 1.21354 1.20822 1.20074 1.19874
          1.2124 1.19644 1.19718 1.19356 1.19 1.19121 1.18876 1.19045 1.09812 1.10497 1.09524 1.09963
          1.0976 1.07993 1.0856 1.07813 1.07222 1.08555 1.07464 1.06272 1.05926 1.05155 1.04023 1.05332
          1.05777 1.04925 1.03317 1.09974 1.10682 1.07501 1.08983 1.09912 1.08804 1.1178 1.09831 1.08681
          1.04725 1.06453 1.06162 1.07354 1.06781 1.08044 1.06058 1.05538 1.07183 1.03995 1.03141 1.03705
          1.0258 1.00853 1.01164 1.01856 1.00613 0.99779 0.988444 0.988124 0.978756 0.990905 0.986478 1.03595
          1.02415 1.05158 1.03826 1.02571 1.02917 1.00974 1.02735 1.01159 0.998629 0.994081 0.983918 1.01787
          1.00135 1.00364 0.996878 0.992483 0.98316 0.986344 0.998266 0.979263 1.10034 1.11692 1.12297 1.08882
          1.08069 1.1039 1.12569 1.07071 1.05917 1.04003 1.07982 1.0752 1.05407 1.04772 1.04688 1.1303
          1.1127 1.09461 1.07804 1.11702 1.06239 1.10072 1.05805 1.11508 1.13921 1.11699 1.08396 1.08859
          1.0934 1.05861 1.04839 1.02914 1.03144 1.00325 1.00426 1.02128 1.03734 1.01367 0.991416 0.988643
          0.983833 1.00928 0.990167 0.974238 0.994788 0.976131 1.03365 1.02725 1.0233 1.00403 1.00891 0.98288
          0.995338 0.994029 1.00792 1.02396 0.984464 1.02802 1.0359 1.00828 1.19552 1.20657 1.22155 1.2265
          1.25707 1.24406 1.24493 1.2733 1.28455 1.26678 1.32106 1.29842 1.30813 1.26122 1.36142 1.33631
          1.35541 1.42793 1.23032 1.24639 1.2928 1.24781 1.32076 1.50209 1.43419 1.51149 1.36048 1.56151
          1.55255 1.57203 1.48267 1.48766 1.38929 1.42527 1.34243 1.33898 1.35117 1.30515 1.44153 1.35457
          1.36351 1.366 1.3511 1.3317 1.26771 1.30446 1.2777 1.26813 1.29769 1.25597 1.23931 1.30489
          1.30965 1.30904 1.29767 1.27264 1.26327 1.31568 1.28199 1.26402 1.24236 1.237 1.24853 1.28618
          1.25179 1.25759 1.24939 1.2465 1.21701 1.22683 1.21221 1.21895 1.20676 1.20539 1.21621 1.17753
          1.17123 1.15431 1.22506 1.22429 1.21536 1.24784 1.20103 1.16565 1.17107 1.17161 1.12493 1.16658
          1.12362 1.17297 1.23023 1.20676 1.1939 1.18558 1.20726 1.16846 1.18225 1.17648 1.21256 1.18352
          1.15306 1.13398 1.1275 1.17098 1.15167 1.14659 1.13846 1.12372 1.15744 1.18045 1.14436 1.23648
          1.21971 1.2354 1.21653 1.2193 1.2284 1.20929 1.20163 1.21244 1.20362 1.19971 1.1977 1.20621
          1.19307 1.19489 1.1994 1.19854 1.18729 1.18053 1.24035 1.20808 1.19598 1.1917 1.17425 1.18061
          1.1946 1.19113 1.19258 1.1899 1.18905 1.18879 1.18322 1.19025 1.18949 1.18481 1.18435 1.18781
          1.17788 1.17648 1.18045 1.168 1.16256 1.16754 1.17417 1.16393 1.15796 1.16174 1.18745 1.16504
          1.15424 1.17221 1.1472 1.16113 1.13484 1.13898 1.10938 1.11638 1.13153 1.13308 1.12842 1.12198
          1.11183 1.11334 1.12195 1.15686 1.14409 1.14138 1.1543 1.13939 1.14743 1.13378 1.12195 1.10771
          1.11956 1.12803 1.10672 1.11339 1.12992 1.08412 1.09452 1.06215 1.11663 1.13818 1.07941 1.10313
          1.07427 1.12735 1.08022 1.08173 1.08264 1.07627 1.04458 1.08773 1.0974 1.07082 1.06013 1.05822
          1.07069 1.04723 1.05476 1.1218 1.08941 1.14285 1.116 1.11725 1.11753 1.09841 1.04736 1.03943
          1.08822 1.0516 1.06745 1.07191 1.07267 1.09251 1.06745 1.04757 1.00765 0.984788 1.0369 1.00852
          1.01628 1.01429 0.982743 0.983837 0.988456 1.0226 1.01895 1.03406 0.995374 0.974961 1.02778 0.976241
          1.0082 1.0318 1.02601 1.02682 1.00921 1.0029 0.994688 0.976083 0.999218 0.997907 0.989974 0.974
          1.03591 1.05832 1.02852 1.03757 1.05097 1.00464 1.00797 0.982375 1.01118 0.993818 0.991346 1.07975
          1.10567 1.08869 1.09849 1.09645 1.07369 1.06365 1.04643 1.03927 1.07454 1.05701 1.04849 1.05253
          1.08736 1.09861 1.06135 1.07894 1.10373 1.08449 1.09693 1.09407 1.07711 1.07126 1.08451 1.0584
          1.03249 1.05075 1.06182 1.03949 1.03524 1.01734 1.02352 1.03635 1.02518 1.03074 1.01109 0.996466
          0.978939 0.982782 1.00925 1.00087 0.98357 1.00799 1.00315 0.990466 0.985956 0.99205 0.98607 1.02856
          1.00561 1.01795 0.997302 0.988012 0.987692 0.97837 1.51676 1.49626 1.51207 1.36543 1.36155 1.4204
          1.42957 1.3435 1.36054 1.33979 1.37325 1.39205 1.34106 1.35663 1.30336 1.28985 1.32009 1.26437
          1.26749 1.31431 1.30903 1.27251 1.25238 1.29998 1.26399 1.24378 1.26643 1.23879 1.22718 1.24949
          1.2186 1.21304 1.32087 1.30093 1.30939 1.27417 1.26652 1.25811 1.24604 1.29368 1.26606 1.2512
          1.22964 1.22588 1.22986 1.22286 1.21531 1.18326 1.14548 1.20495 1.1698 1.172 1.2085 1.19251
          1.1835 1.18624 1.16975 1.15741 1.13907 1.15359 1.13455 1.15253 1.13991 1.12445 1.17703 1.15486
          1.22057 1.23722 1.21743 1.21996 1.2027 1.20468 1.19584 1.19396 1.20611 1.19264 1.18646 1.18093
          1.18137 1.17496 1.20014 1.19559 1.19209 1.19086 1.18971 1.18411 1.18573 1.18527 1.17733 1.17873
          1.18128 1.17499 1.16875 1.1683 1.16469 1.16327 1.16485 1.17314 1.15837 1.14776 1.15484 1.16185
          1.1619 1.13939 1.13255 1.13522 1.1171 1.10627 1.13359 1.129 1.12257 1.12254 1.11239 1.11391
          1.15757 1.14472 1.14201 1.15499 1.14004 1.14811 1.1344 1.12255 1.12015 1.10828 1.12865 1.1073
          1.24545 1.22291 1.22159 1.20724 1.19618 1.08705 1.08025 1.13058 1.09495 1.12478 1.10409 1.04906
          1.04878 1.06224 1.07476 1.10018 1.11731 1.09851 1.12265 1.08887 1.11629 1.08605 1.09844 1.06822
          1.06765 1.06035 1.07066 1.03986 1.07156 1.05909 1.11423 1.0844 1.04668 1.0476 1.05502 1.03714
          1.00922 0.997051 0.994311 1.01383 0.983094 1.02899 1.04834 1.03822 1.03151 1.02181 1.02875 1.00502
          1.0113 0.992514 0.990775 0.99408 1.00962 0.983635 1.02738 1.00933 0.99578 0.998264 0.989788 0.974086
          1.09949 1.08819 1.08926 1.0991 1.09701 1.0748 1.0732 1.06133 1.07982 1.06421 1.07421 1.07947
          1.05748 1.04702 1.10431 1.09749 1.09463 1.03971 1.04896 1.053 1.08503 1.07764 1.07177 1.08505
          1.05888 1.03291 1.05121 1.06231 1.03993 1.05155 1.03582 1.02395 1.01774 1.03681 1.0256 1.03116
          1.01146 1.00127 0.996843 0.983581 0.982923 1.0035 0.992328 0.986225 0.990743 0.979144 1.00835 0.986339
          1.00595 1.01833 0.997612 0.988287 0.987965 0.978608 0.960463 0.971071 0.969233 0.949656 0.951014 0.944199
          0.937124 0.936806 0.93238 0.94004 0.948792 0.935236 0.929927 0.924667 0.921282 0.916974 0.921481 0.924836
          0.917941 0.912406 0.926487 0.912681 0.910977 0.905899 0.900388 0.908594 0.899567 0.906835 0.913474 0.901453
          0.906076 0.90845 0.914537 0.903428 0.96783 0.975042 0.956651 0.964636 0.959816 0.959661 0.952766 0.965846
          0.948283 0.943417 0.940352 0.976485 0.932714 0.936292 0.9261 0.919309 0.921644 0.913755 0.923708 0.959735
          0.975309 0.954768 0.963021 0.955688 0.969639 0.944382 0.94078 0.931379 0.936564 0.947217 0.949573 0.959373
          0.939152 0.927097 0.966816 0.982294 0.963457 0.97194 0.946204 0.931682 0.945349 0.945431 0.960556 0.933232
          0.975509 0.959676 0.960156 0.982268 0.971535 0.94762 0.963663 0.951398 0.941605 0.93682 0.936453 0.94518
          0.968458 0.971654 0.978184 0.954297 0.935637 0.937547 0.908823 0.919959 0.925609 0.914337 0.93297 0.918573
          0.924102 0.913184 0.902754 0.899349 0.906619 0.900575 0.906145 0.905341 0.910255 0.9152 0.901563 0.929715
          0.928407 0.917057 0.919738 0.929261 0.91499 0.907148 0.899862 0.908133 0.903724 0.924246 0.913068 0.922103
          0.928905 0.915918 0.913391 0.90376 0.902203 0.915269 0.902584 0.903865 0.919819 0.921469 0.922945 0.929028
          0.908832 0.908909 0.909206 0.904815 0.896527 0.892742 0.89218 0.888856 0.893115 0.898583 0.891318 0.887031
          0.893093 0.899107 0.889864 0.886804 0.88287 0.885206 0.885695 0.882262 0.880454 0.883753 0.878677 0.878777
          0.876775 0.875826 0.876327 0.875474 0.879517 0.877372 0.892631 0.890836 0.880051 0.884597 0.88414 0.886891
          0.885528 0.881643 0.884099 0.875651 0.87509 0.875141 0.875072 0.875115 0.875177 0.875201 0.877648 0.876902
          0.879027 0.87938 0.879793 0.878426 0.877002 0.877171 0.880568 0.877801 0.878154 0.876394 0.875968 0.875414
          0.875396 0.875823 0.875593 0.875956 0.875502 0.876655 0.87636 0.875799 0.876197 0.87648 0.876074 0.896589
          0.896901 0.89469 0.889733 0.890128 0.898646 0.890957 0.893696 0.888149 0.882095 0.887081 0.881842 0.885109
          0.888948 0.883775 0.881858 0.893144 0.899142 0.898022 0.890891 0.88761 0.894306 0.881839 0.884067 0.887662
          0.882266 0.885575 0.886902 0.881741 0.895647 0.892456 0.894276 0.89204 0.890041 0.885498 0.886926 0.893902
          0.897019 0.897957 0.893756 0.885598 0.888037 0.881021 0.88689 0.88157 0.882807 0.884316 0.878182 0.877998
          0.880666 0.878354 0.879742 0.876627 0.876585 0.876481 0.876158 0.877133 0.876944 0.878459 0.877067 0.87743
          0.879299 0.877192 0.878877 0.881692 0.878287 0.87858 0.877422 0.876554 0.876383 0.876512 0.876842 0.876957
          0.877195 0.876897 0.877028 0.877194 0.878499 0.877146 0.88029 0.879327 0.878547 0.878408 0.877714 0.877563
          0.877423 0.877194 0.878499 0.877168 0.878792 0.880036 0.879083 0.87831 0.879391 0.877168 0.877073 0.877328
          0.877339 0.877455 0.877141 0.877457 0.877369 0.877495 0.877316 0.97164 0.969792 0.977204 0.960204 0.967653
          0.975653 0.965203 0.968368 0.957143 0.951475 0.960305 0.953201 0.95011 0.949231 0.940432 0.948712 0.940675
          0.943814 0.935595 0.933042 0.926374 0.936628 0.925139 0.926784 0.919559 0.921906 0.912912 0.913954 0.92397
          0.913713 0.908643 0.914759 0.906273 0.960979 0.944626 0.937509 0.937183 0.932737 0.930274 0.924982 0.92177
          0.92158 0.918215 0.912655 0.91725 0.908817 0.911219 0.907049 0.900577 0.906119 0.899752 0.901634 0.903602
          0.975647 0.960047 0.955726 0.947461 0.951272 0.940782 0.94184 0.937201 0.95625 0.935358 0.937626 0.960293
          0.955135 0.963237 0.959543 0.944686 0.931719 0.949989 0.937027 0.938832 0.931538 0.975488 0.952486 0.972059
          0.963796 0.966712 0.936971 0.942838 0.942642 0.945328 0.982368 0.946704 0.929807 0.933217 0.924409 0.916222
          0.924298 0.91677 0.915114 0.91023 0.918814 0.913567 0.902347 0.906448 0.918063 0.903713 0.904837 0.920281
          0.908974 0.925267 0.906723 0.901384 0.902899 0.899492 0.91437 0.906155 0.905359 0.920385 0.915806 0.925134
          0.929017 0.932887 0.903075 0.908686 0.904307 0.915315 0.908136 0.90371 0.919752 0.91692 0.907208 0.899259
          0.896702 0.892899 0.892335 0.888998 0.898753 0.893268 0.893231 0.891463 0.889989 0.887163 0.885816 0.885325
          0.883859 0.886936 0.88299 0.882377 0.880563 0.879618 0.878882 0.877468 0.878783 0.876873 0.875923 0.876422
          0.875569 0.895658 0.891899 0.895919 0.895738 0.898987 0.885674 0.890345 0.885692 0.889031 0.891032 0.889185
          0.881774 0.896707 0.892739 0.886689 0.890951 0.896434 0.890349 0.896961 0.89479 0.889833 0.888248 0.885156
          0.882184 0.884227 0.88457 0.881965 0.885614 0.884194 0.881735 0.896187 0.896009 0.887931 0.894268 0.879893
          0.886517 0.882208 0.886922 0.881926 0.898809 0.891274 0.898067 0.887666 0.887186 0.881952 0.884177 0.881859
          0.880363 0.878467 0.878424 0.878414 0.877551 0.877435 0.877702 0.877139 0.877453 0.877071 0.879888 0.878247
          0.877875 0.880713 0.87801 0.880659 0.877252 0.878508 0.878217 0.876633 0.87697 0.877186 0.876688 0.876263
          0.876439 0.876525 0.876202 0.878429 0.878964 0.878485 0.877408 0.877369 0.877053 0.876983 0.877251 0.877367
          0.877365 0.877293 0.877085 0.879392 0.879043 0.877207 0.881814 0.878468 0.876603 0.87734 0.876598 0.876528
          0.876128 0.876416 0.877163 0.876834 0.884699 0.880152 0.87912 0.879472 0.876993 0.877087 0.87774 0.876465
          0.87674 0.875672 0.876056 0.875909 0.875744 0.875504 0.875268 0.875234 0.875483 0.87529 0.876035 0.875871
          0.875584 0.875165 0.875208 0.875184 0.966518 0.959399 0.95571 0.946551 0.952217 0.93688 0.949921 0.938722
          0.929746 0.931466 0.955994 0.940134 0.95635 0.935507 0.945131 0.959827 0.967471 0.963174 0.955025 0.953016
          0.960137 0.959977 0.931603 0.936931 0.944553 0.940672 0.936481 0.943629 0.940506 0.947282 0.975616 0.963221
          0.976771 0.959846 0.950963 0.937362 0.941649 0.936987 0.932869 0.918636 0.919798 0.925189 0.916924 0.915317
          0.907203 0.908181 0.904566 0.905464 0.914363 0.905657 0.896891 0.920061 0.921779 0.917423 0.928906 0.916158
          0.909045 0.908435 0.899768 0.9057 0.902499 0.914874 0.903786 0.920198 0.923855 0.921795 0.90891 0.926648
          0.919443 0.914662 0.926243 0.933071 0.924243 0.918714 0.906136 0.901442 0.899449 0.913868 0.903532 0.902848
          0.906684 0.908562 0.910155 0.924337 0.913019 0.898902 0.903571 0.949006 0.940233 0.936992 0.93542 0.971295
          0.969458 0.949862 0.951221 0.937308 0.944395 0.932556 0.960676 0.924993 0.921632 0.912809 0.921435 0.924826
          0.917118 0.930097 0.918085 0.912539 0.913605 0.908717 0.901558 0.906188 0.906954 0.900495 0.911107 0.90602
          0.899672 0.960061 0.964923 0.968057 0.975304 0.956878 0.948499 0.932882 0.8992 0.89318 0.892702 0.890915
          0.889941 0.885578 0.884661 0.886604 0.884152 0.881702 0.884192 0.88528 0.88382 0.880116 0.88577 0.878201
          0.876445 0.876519 0.877854 0.876243 0.876116 0.87585 0.875712 0.875536 0.876389 0.876839 0.87526 0.875237
          0.875133 0.875889 0.875152 0.875202 0.875176 0.880628 0.878482 0.879441 0.879862 0.877059 0.877708 0.87909
          0.877227 0.880523 0.879582 0.877435 0.878844 0.876962 0.875647 0.87601 0.876027 0.875558 0.875454 0.876713
          0.876414 0.875474 0.875881 0.897997 0.898984 0.892515 0.887661 0.891115 0.894707 0.890321 0.884681 0.881996
          0.884173 0.887134 0.889804 0.884437 0.881908 0.881924 0.889535 0.880272 0.896724 0.890139 0.896295 0.89424
          0.884442 0.885479 0.886985 0.891908 0.883232 0.896935 0.898857 0.896702 0.891046 0.88905 0.88514 0.881735
          0.88823 0.882151 0.890466 0.895961 0.879349 0.879058 0.878315 0.878027 0.877212 0.877376 0.876607 0.876421
          0.876869 0.87666 0.877089 0.876758 0.877171 0.876194 0.876515 0.876928 0.876997 0.877108 0.879507 0.880332
          0.87931 0.878457 0.881673 0.886456 0.878374 0.878595 0.877342 0.877204 0.877223 0.877346 0.877243 0.877214
          0.878367 0.877429 0.877669 0.877261 0.877526 0.87822 0.880678 0.878392 0.876611 0.876664 0.877157 0.8774
          0.878546 0.877194 0.893206 0.898682 0.892835 0.891405 0.887111 0.892272 0.896627 0.888941 0.886884 0.882945
          0.882334 0.878745 0.971675 0.984162 0.969948 0.949034 0.939214 0.966716 0.955937 0.93166 0.946134 0.975758
          0.960347 0.966177 0.976809 0.959927 0.951553 0.937217 0.936952 0.940758 0.959988 0.947376 0.941711 0.959533
          0.963253 0.938939 0.975655 0.955017 0.960057 0.953068 0.9499 0.937118 0.944614 0.94058 0.936572 0.931728
          0.943713 0.920132 0.926665 0.916316 0.930084 0.905227 0.913281 0.901639 0.914625 0.902438 0.916444 0.924426
          0.92428 0.93315 0.913554 0.902425 0.9038 0.910317 0.918655 0.93295 0.919841 0.92526 0.916917 0.908023
          0.907045 0.914343 0.905265 0.92402 0.920094 0.926346 0.9219 0.926713 0.919494 0.90888 0.914704 0.902875
          0.906172 0.913887 0.906582 0.899438 0.902912 0.908622 0.903577 0.965016 0.960173 0.975487 0.968234 0.969654
          0.971501 0.95701 0.951359 0.948588 0.949116 0.935507 0.940332 0.949996 0.932963 0.92507 0.912868 0.913671
          0.906263 0.937091 0.937416 0.944521 0.932653 0.960852 0.921707 0.924912 0.930194 0.91816 0.91261 0.921517
          0.917195 0.908782 0.901613 0.907022 0.900557 0.911178 0.906087 0.899735 0.894956 0.894393 0.8879 0.894069
          0.893159 0.881593 0.886496 0.891955 0.890518 0.885485 0.881988 0.883467 0.896003 0.898535 0.888892 0.897921
          0.899065 0.89118 0.887817 0.894753 0.887594 0.881962 0.884103 0.882225 0.886508 0.889979 0.884396 0.881775
          0.896324 0.893742 0.891098 0.897302 0.890987 0.899338 0.89287 0.881725 0.88506 0.888174 0.882096 0.885762
          0.884151 0.880277 0.889995 0.878674 0.878664 0.879315 0.880487 0.878325 0.879455 0.877275 0.877453 0.877395
          0.877313 0.877324 0.878362 0.877527 0.877011 0.877114 0.8772 0.877669 0.878448 0.877229 0.877524 0.879328
          0.878857 0.877468 0.878264 0.880634 0.877304 0.878313 0.876669 0.876919 0.876485 0.877002 0.876983 0.87643
          0.876578 0.876482 0.876249 0.87586 0.87659 0.876081 0.880573 0.878248 0.878732 0.879993 0.879531 0.877433
          0.879274 0.877101 0.876774 0.876704 0.876524 0.893222 0.881822 0.88457 0.885802 0.88385 0.880168 0.885322
          0.875895 0.877774 0.877089 0.879657 0.87708 0.880587 0.87751 0.876475 0.878914 0.876917 0.87576 0.876087
          0.876847 0.876105 0.875642 0.875995 0.875545 0.875346 0.875786 0.875565 0.875318 0.875282 0.875615 0.875213
          0.875967 0.875256 0.875231 0.898754 0.89326 0.891459 0.89289 0.887161 0.892327 0.896687 0.888995 0.886935
          0.883003 0.882393 0.878814
        </DataArray>
      </PointData>
      <Points>
        <DataArray type="Float32" Name="Coordinates" NumberOfComponents="3" format="ascii">
          -0.0111111 -0.455556 0 -2.07999e-14 -0.47037 0 0.00163476 -0.44672 0.0320777 0 -0.5 0
          -0.0222222 -0.411111 0 2.65178e-13 -0.429167 0 -0.0113817 -0.389769 0.0401719 -1.11063e-14 -0.387586 0
          -0.0333333 -0.366667 0 -2.74554e-14 -0.340792 0 -0.0212467 -0.342422 0.0518792 -0.0444444 -0.322222 0
          -0.0387417 -0.302082 0.0353312 -2.56913e-15 -0.285031 0 -0.0555556 -0.277778 0 -0.0302755 -0.250063 0
          -0.0468172 -0.266713 0.0435372 -0.0666667 -0.233333 0 1.78099e-13 -0.243418 0 0.0158627 -0.229629 0.0622291
          -0.0275303 -0.297271 0.0773162 -0.00175006 -0.338093 0.111436 0.0309767 -0.291032 0.0982486 -0.0396959 -0.25335 0.0880126
          -0.0174372 -0.279875 0.133701 -0.0380221 -0.234041 0.124935 0.0305335 -0.243958 0.120146 -0.00610306 -0.275183 0.180561
          -0.0314703 -0.231619 0.157967 -0.49802 -0.0226798 0.0434719 -0.455556 -0.0111111 0 -0.5 0 0
          -0.47037 2.07993e-14 0 -0.464185 -0.0335048 0.0510121 -0.44672 -0.00163476 0.0320777 -0.455556 0.0111111 0
          -0.429167 -2.65218e-13 0 -0.413519 -0.038459 0.0395347 -0.459259 -0.0227975 0.068281 -0.45346 -0.0515142 0.0851289
          -0.496393 -0.0454245 0.0869251 -0.411111 -0.0222222 0 -0.389769 0.0113817 0.0401719 -0.387586 1.11027e-14 0
          -0.366667 -0.0333333 0 -0.359941 -0.0482778 0.0361446 -0.38546 -0.0527672 0.0611606 -0.410848 -0.00882148 0.0726189
          -0.374817 0.000790507 0.0786657 -0.412507 -0.0816223 0.141122 -0.423647 -0.0425798 0.137513 -0.407547 -0.0613694 0.0914629
          -0.446416 -0.0690619 0.120968 -0.375534 -0.0774349 0.120833 -0.448017 -0.0390722 0.10986 -0.494457 -0.0681125 0.130395
          -0.355899 -0.0640935 0.07753 -0.39214 -0.0211192 0.117223 -0.322222 -0.0444444 0 -0.340792 2.74693e-14 0
          -0.30228 -0.0606369 0.0369434 -0.342422 0.0212467 0.0518792 -0.285031 2.56913e-15 0 -0.315752 -0.0695452 0.0738134
          -0.277778 -0.0555556 0 -0.25692 -0.0702976 0.0376061 -0.233333 -0.0666667 0 -0.250063 -0.0302755 0
          -0.243418 -1.78099e-13 0 -0.238464 -0.0169545 0.0570164 -0.280199 -0.0756425 0.0740964 -0.237749 -0.0834322 0.0767292
          -0.297271 0.0275303 0.0773162 -0.297646 -0.0820038 0.105191 -0.285396 -0.0278944 0.102041 -0.264276 -0.0861379 0.103706
          -0.33341 -0.0841252 0.125781 -0.278967 -0.0945963 0.140958 -0.226403 -0.0953449 0.121559 -0.231399 -0.0285238 0.115146
          -0.338093 0.00175006 0.111436 -0.313718 -0.00273714 0.153379 -0.25335 0.0396959 0.0880126 -0.269657 -0.0507027 0.176467
          -0.449529 -0.0642049 0.159689 -0.454398 -0.0849005 0.156846 -0.491554 -0.0906163 0.173905 -0.461765 -0.100651 0.191078
          -0.460144 -0.0947719 0.209343 -0.421525 -0.0986856 0.182429 -0.404293 -0.0460208 0.163281 -0.370456 -0.0962627 0.168855
          -0.41659 -0.0699865 0.203053 -0.367842 -0.0474256 0.206586 -0.35689 -0.0231717 0.15832 -0.487103 -0.11282 0.217438
          -0.442118 -0.11863 0.228236 -0.444352 -0.103342 0.241194 -0.481453 -0.134857 0.260918 -0.389228 -0.114769 0.217954
          -0.405492 -0.131112 0.257033 -0.392847 -0.0783674 0.247778 -0.362532 -0.127264 0.249687 -0.318062 -0.102466 0.176906
          -0.239153 -0.105037 0.168078 -0.276697 -0.106975 0.184086 -0.246779 -0.115447 0.211286 -0.318047 -0.0182219 0.193628
          -0.279875 0.0174372 0.133701 -0.275183 0.00610306 0.180561 -0.341006 -0.115223 0.216958 -0.292836 -0.118284 0.224186
          -0.320864 -0.0352166 0.238232 -0.356339 -0.062056 0.257194 -0.323488 -0.129328 0.257616 -0.310959 -0.044391 0.279968
          -0.231322 -0.0537152 0.218841 -0.252287 -0.12611 0.252179 -0.260477 -0.0774075 0.285131 -0.273281 -0.00563048 0.224689
          -0.230916 0.0203775 0.207716 -0.270081 -0.016227 0.267169 -0.0291554 -0.210757 0 -0.0559987 -0.228826 0.0532384
          -0.0777778 -0.188889 0 -0.0710803 -0.186038 0.0427358 -0.0426391 -0.175748 0 0.0138129 -0.166441 0.0800412
          -0.0888889 -0.144444 0 -0.0832049 -0.139709 0.0568709 -0.032345 -0.137866 0 -0.0539412 -0.0962706 0
          3.8039e-14 -0.17194 0 -0.0165465 -0.120932 0.0553652 1.6464e-05 -0.137119 0 -0.0544553 -0.209307 0.0914239
          -0.0518708 -0.195002 0.133468 0.0507925 -0.187368 0.113844 -0.0716161 -0.157468 0.100274 -0.0892592 -0.109167 0.0952346
          -0.083834 -0.113667 0.142854 -0.0136227 -0.133142 0.125716 0.0120537 -0.0865012 0.0953422 -0.210757 -0.0291554 0
          -0.209048 -0.0803826 0.038111 -0.188889 -0.0777778 0 -0.190745 -0.0914853 0.0780566 -0.175748 -0.0426391 0
          -0.162965 -0.0907158 0.0430579 -0.144444 -0.0888889 0 -0.137866 -0.0323576 0 -0.124742 -0.0447383 0.0505626
          -0.154536 -0.0138731 0.0828387 -0.129605 -0.0970893 0.0397081 -0.134513 -0.101072 0.0806869 -0.191706 0.0137611 0.0508667
          -0.17194 -3.80383e-14 0 -0.0962706 -0.0539412 0 -0.137119 -1.6464e-05 0 -0.100804 -5.31915e-05 0
          -0.118944 0.0165924 0.0510087 -0.17958 -0.0475693 0.118886 -0.16796 -0.101662 0.117927 -0.124262 -0.107966 0.12621
          -0.122143 -0.0518739 0.112103 -0.165253 0.00278129 0.136818 -0.105199 0.0122274 0.109023 -0.1 -0.1 0
          -0.0946022 -0.104542 0.0476182 -0.0502119 -0.0502119 0 5.31915e-05 -0.100804 0 -0.0256337 -0.0725575 0
          -0.0231796 -0.0490694 0.0570212 0.000425532 -0.0497863 0 0.0171924 -0.0751575 0.0480587 -0.0794706 -0.0339797 0.0773375
          -0.0742681 -0.026158 0 -0.0753424 -0.00180197 0.0416303 -0.0497863 -0.000425532 0 -0.0250988 -0.0255315 0
          -0.0279877 0.00368257 0.0490398 0 -2.1167e-20 0 0.0255315 -0.0250988 0 -0.0435008 -0.0643326 0.12418
          -0.117821 -0.0198638 0.160129 -0.0248896 -0.000634752 0.121816 0.0146775 0.0281549 0.070262 0.00929611 -0.0724123 0.15565
          0.0345121 -0.200938 0.163832 -0.0203775 -0.230916 0.207716 -0.0440393 -0.190886 0.186958 0.00524317 -0.173797 0.200975
          -0.064138 -0.159687 0.148095 -0.025188 -0.0952055 0.196214 -0.0636671 -0.146023 0.199691 -0.0781902 -0.117832 0.190478
          0.0226765 -0.12977 0.174993 -0.0314565 -0.19982 0.230861 -0.0116508 -0.224679 0.260197 -0.0472422 -0.17051 0.229061
          0.00159181 -0.128496 0.235312 -0.0343289 -0.181812 0.270373 -0.0545798 -0.14997 0.25695 0.0458033 -0.1624 0.266624
          -0.0722479 -0.121571 0.238101 -0.190176 -0.10647 0.157857 -0.190421 -0.0331312 0.174005 -0.200492 -0.114963 0.203625
          -0.14877 -0.108906 0.151909 -0.145186 -0.0624164 0.179469 -0.153695 -0.114546 0.191458 -0.117024 -0.113833 0.171221
          -0.231619 0.0314703 0.157967 -0.123774 0.00956268 0.21177 -0.212785 -0.122796 0.24078 -0.167603 -0.121171 0.233387
          -0.20381 -0.0621736 0.276098 -0.150071 -0.0376728 0.237177 -0.117006 -0.120296 0.225972 -0.14237 -0.125833 0.264138
          -0.0882137 -0.0583238 0.238903 -0.19982 0.0314565 0.230861 -0.224679 0.0116508 0.260197 -0.0904905 -0.0610129 0.184106
          -0.0416225 -0.0396807 0.19722 -0.065044 0.0240893 0.173515 -0.00562914 0.010854 0.200958 -0.100464 -0.126862 0.285383
          -0.131661 -0.0689857 0.288245 0.00675257 -0.0431335 0.226111 -0.0283491 -0.0669881 0.263335 -0.0725992 0.0137101 0.242303
          -0.14996 -0.0133265 0.290518 -1.38778e-17 0 0.261898 -0.441436 -0.128191 0.290887 -0.4434 -0.14187 0.277997
          -0.474794 -0.15668 0.304363 -0.444559 -0.1602 0.316386 -0.43702 -0.149441 0.334403 -0.41208 -0.10373 0.277908
          -0.41047 -0.150462 0.301047 -0.368402 -0.139172 0.279946 -0.398104 -0.119145 0.326539 -0.370697 -0.156029 0.321903