<?xml version="1.0"?>
<VTKFile type="UnstructuredGrid" version="0.1" byte_order="LittleEndian">
  <UnstructuredGrid>
    <Piece NumberOfCells="8393" NumberOfPoints="2381">
      <PointData Scalars="solution">
        <DataArray type="Float32" Name="solution" NumberOfComponents="1" format="ascii">
          1.19238 1.19161 1.19115 1.18992 1.1984 1.19475 1.19992 1.202 1.20976 1.21518 1.2117 1.22558
          1.23101 1.23944 1.24824 1.26119 1.24806 1.27714 1.26094 1.25508 1.22311 1.19801 1.21304 1.24227
          1.21056 1.23423 1.21902 1.18538 1.21603 1.18362 1.1892 1.1871 1.18879 1.18407 1.18834 1.18955
          1.1919 1.19042 1.18247 1.1771 1.17571 1.19392 1.19706 1.19908 1.20301 1.20099 1.19094 1.18803
          1.19413 1.16173 1.16719 1.17963 1.16674 1.17333 1.17338 1.16314 1.19218 1.17972 1.21579 1.21192
          1.21886 1.2089 1.23446 1.20417 1.23574 1.24222 1.26225 1.25109 1.25706 1.24966 1.21784 1.23662
          1.22052 1.19876 1.2098 1.21123 1.17913 1.1859 1.216 1.22366 1.19459 1.18508 1.23676 1.17577
          1.15607 1.15351 1.14666 1.13863 1.13303 1.1433 1.16036 1.15331 1.14061 1.14643 1.17176 1.12731
          1.12125 1.11887 1.10609 1.12766 1.10707 1.12127 1.11267 1.15653 1.18197 1.16151 1.15058 1.16409
          1.2067 1.18247 1.13215 1.13376 1.13842 1.12137 1.11125 1.11586 1.15833 1.12349 1.11052 1.15748
          1.17933 1.13065 1.28952 1.26874 1.31199 1.30311 1.32431 1.29494 1.35786 1.33792 1.36438 1.43212
          1.32037 1.3681 1.36898 1.268 1.25001 1.25093 1.29422 1.3183 1.2671 1.27934 1.3578 1.27948
          1.27007 1.29794 1.26152 1.31197 1.30851 1.34234 1.35231 1.34668 1.2995 1.33809 1.30012 1.28902
          1.32368 1.42805 1.36311 1.43791 1.3699 1.24802 1.24832 1.26851 1.2947 1.25082 1.32039 1.39194
          1.36364 1.51406 1.44263 1.50431 1.49221 1.55618 1.46831 1.39036 1.4887 1.46898 1.5432 1.56823
          1.53632 1.59195 1.57732 1.32355 1.24434 1.35377 1.49681 1.27252 1.20933 1.18171 1.20672 1.19318
          1.25379 1.21675 1.20587 1.21543 1.22768 1.17204 1.14536 1.17808 1.17194 1.14374 1.15586 1.13946
          1.17108 1.20543 1.20409 1.1683 1.22905 1.21019 1.19205 1.22333 1.21248 1.19369 1.13787 1.15296
          1.12359 1.1633 1.17094 1.13395 1.17054 1.16995 1.14343 1.22201 1.22212 1.25042 1.22319 1.12495
          1.12346 1.1909 1.15361 1.17299 1.12398 1.15668 1.09349 1.09634 1.08398 1.07661 1.07078 1.10312
          1.08396 1.09586 1.07844 1.07321 1.09792 1.06138 1.05798 1.05035 1.03913 1.05214 1.04813 1.03216
          1.05661 1.08812 1.07915 1.10494 1.07316 1.07407 1.06327 1.03897 1.04608 1.05434 1.0705 1.09642
          1.04698 1.04066 1.09809 1.08689 1.09717 1.11664 1.0609 1.08255 1.07239 1.05041 1.06689 1.03042
          1.01765 1.00534 1.02491 1.00773 1.03606 1.01085 0.997042 0.987766 0.987444 0.978128 0.985842 0.99021
          1.01717 1.02337 1.02671 1.03515 1.01208 1.00295 0.985745 0.991792 0.99637 0.978714 0.997887 0.982412
          1.00066 1.00939 0.983098 1.02828 1.03764 1.01067 0.993938 0.99224 1.0878 1.05857 1.07077 1.07501
          1.04638 1.05615 1.11747 1.1353 1.11529 1.1303 1.10941 1.09473 1.08821 1.09356 1.08431 1.07643
          1.06257 1.05849 1.05125 1.11509 1.12182 1.10353 1.08186 1.09239 1.11709 1.14137 1.11667 1.03922
          1.06736 1.0876 1.07239 1.05823 1.11246 1.11702 1.11095 1.07861 1.08257 1.05275 1.09695 1.04848
          1.03091 1.00909 1.0135 1.03636 1.02383 0.989329 0.973675 0.995431 0.994394 0.983436 1.00879 1.06831
          1.03373 1.0279 1.03632 0.98287 1.00779 0.997257 1.02265 1.00846 0.99878 0.984146 1.04807 1.02913
          1.0392 1.03628 1.00453 1.02718 1.03369 1.02241 0.990387 1.00814 1.00773 0.993655 1.04392 1.02665
          1.01554 0.995557 0.995298 1.19202 1.18639 1.18685 1.19321 1.18523 1.17843 1.17983 1.19679 1.20595
          1.20371 1.19083 1.19366 1.19698 1.17608 1.16575 1.16938 1.18237 1.18255 1.19479 1.16985 1.17604
          1.16434 1.21853 1.22085 1.20775 1.23916 1.25577 1.26716 1.24418 1.22129 1.18221 1.18727 1.24021
          1.20087 1.18751 1.21317 1.2192 1.15862 1.14911 1.15603 1.141 1.13533 1.14572 1.16295 1.17436
          1.1559 1.143 1.14886 1.12954 1.1234 1.12099 1.10804 1.1299 1.12343 1.10902 1.11467 1.16616
          1.15945 1.17748 1.18445 1.16306 1.15287 1.14072 1.13447 1.13585 1.12358 1.11316 1.11854 1.15999
          1.12129 1.15451 1.13267 1.12532 1.2853 1.27538 1.30124 1.31373 1.36077 1.31417 1.35695 1.34377
          1.3476 1.42873 1.26735 1.30945 1.2533 1.28426 1.26588 1.49309 1.51525 1.3675 1.4849 1.3951
          1.43615 1.36032 1.34178 1.38007 1.50738 1.56259 1.36533 1.44519 1.36626 1.43948 1.31275 1.32361
          1.26755 1.36223 1.33004 1.30037 1.28223 1.29405 1.29977 1.32266 1.30993 1.28806 1.32365 1.28527
          1.27433 1.26774 1.25821 1.24617 1.28061 1.25801 1.25018 1.26343 1.23885 1.24396 1.24747 1.22675
          1.23291 1.20848 1.2093 1.16988 1.1837 1.22782 1.23816 1.23148 1.22469 1.19397 1.14015 1.15462
          1.18058 1.17224 1.13547 1.24186 1.21689 1.22174 1.26949 1.25432 1.22848 1.20504 1.17079 1.11595
          1.15606 1.18799 1.17379 1.15443 1.20878 1.2154 1.18047 1.18433 1.1845 1.1735 1.17784 1.17131
          1.14299 1.14483 1.24538 1.22807 1.23574 1.22305 1.22229 1.21042 1.21337 1.20805 1.20057 1.19857
          1.2122 1.19626 1.19702 1.19339 1.18983 1.19104 1.18859 1.19028 1.09816 1.10501 1.09528 1.09967
          1.09764 1.07998 1.08564 1.07817 1.07227 1.0856 1.0747 1.06278 1.05931 1.05161 1.04029 1.05338
          1.05783 1.04931 1.03324 1.09978 1.10687 1.07507 1.08988 1.09919 1.08809 1.11785 1.09839 1.08688
          1.04732 1.0646 1.06169 1.0736 1.06788 1.08051 1.06065 1.05547 1.07194 1.04003 1.03148 1.03711
          1.02587 1.00861 1.01171 1.01863 1.00621 0.997864 0.988521 0.988201 0.978833 0.990983 0.986557 1.03601
          1.02422 1.05163 1.03824 1.02577 1.02922 1.00981 1.02743 1.01165 0.99871 0.994198 0.984008 1.01795
          1.00143 1.00371 0.99696 0.992564 0.983246 0.986425 0.998352 0.97935 1.10045 1.117 1.12309 1.08901
          1.081 1.10418 1.12571 1.07104 1.05936 1.04001 1.07603 1.05151 1.04783 1.04684 1.13037 1.10958
          1.09549 1.11703 1.11029 1.1143 1.08085 1.06228 1.04872 1.07689 1.13903 1.11725 1.08462 1.08836
          1.09325 1.05885 1.04832 1.02902 1.03159 1.00327 1.01947 1.0142 1.00489 0.991541 0.982264 0.988689
          1.00827 1.0094 1.03678 0.990269 0.97434 0.994899 0.983817 0.976265 1.03359 1.01366 1.01411 1.04112
          1.00792 0.983074 0.995866 1.02787 1.02292 0.993674 0.977088 1.03678 1.00846 0.984648 1.19552 1.20658
          1.22155 1.2265 1.25709 1.24407 1.24494 1.27332 1.28458 1.26679 1.3211 1.29845 1.30817 1.26124
          1.36147 1.33636 1.35546 1.42801 1.23033 1.24639 1.29283 1.2478 1.32081 1.50218 1.4343 1.51159
          1.36055 1.56162 1.55267 1.57216 1.48279 1.48777 1.38937 1.42537 1.34251 1.33906 1.35127 1.30521
          1.44163 1.35467 1.36361 1.36613 1.35123 1.33187 1.26771 1.30501 1.27774 1.26816 1.29777 1.25604
          1.23936 1.30498 1.30973 1.30911 1.29774 1.27271 1.26333 1.31576 1.28206 1.26408 1.24242 1.23706
          1.2486 1.28625 1.25186 1.25766 1.24943 1.24656 1.21706 1.22688 1.21226 1.21901 1.20674 1.20533
          1.21613 1.17749 1.17088 1.15421 1.22497 1.22428 1.21538 1.248 1.20107 1.16546 1.17072 1.17157
          1.12527 1.16658 1.12368 1.17295 1.23025 1.20679 1.19392 1.18561 1.20731 1.1685 1.18229 1.17652
          1.21261 1.18356 1.15308 1.13403 1.12754 1.17101 1.1517 1.14661 1.13849 1.12374 1.15747 1.18049
          1.1444 1.23654 1.21977 1.23545 1.21658 1.21935 1.22846 1.20934 1.20168 1.21249 1.20367 1.19976
          1.19775 1.20626 1.19311 1.19494 1.19945 1.19858 1.18733 1.18057 1.24041 1.20813 1.19603 1.19175
          1.17428 1.18065 1.19465 1.19118 1.19263 1.18994 1.18909 1.18883 1.18326 1.19029 1.18954 1.18486
          1.1844 1.18785 1.17793 1.17652 1.18049 1.16803 1.16259 1.16757 1.17421 1.16397 1.15799 1.16177
          1.18749 1.16507 1.15427 1.17225 1.14723 1.16117 1.13486 1.13901 1.10939 1.1164 1.13155 1.1331
          1.12845 1.122 1.11185 1.11336 1.12197 1.1569 1.14412 1.14141 1.15433 1.13942 1.14746 1.1338
          1.12197 1.10772 1.11957 1.12805 1.10674 1.11359 1.12986 1.09504 1.08411 1.06203 1.12542 1.09707
          1.11718 1.0796 1.10319 1.07438 1.12748 1.05845 1.08266 1.04406 1.07625 1.08775 1.09741 1.07081
          1.06011 1.0582 1.0707 1.0472 1.05474 1.12184 1.08941 1.14291 1.11603 1.11726 1.11759 1.09841
          1.04732 1.03937 1.08819 1.05146 1.06739 1.0719 1.07265 1.0925 1.06743 1.04751 0.984871 1.03672
          1.00828 1.01512 1.01413 0.98286 0.983778 0.988411 1.02278 1.01886 1.03336 0.995388 0.975186 0.998622
          1.02752 1.03175 1.02597 1.02679 1.00916 1.00288 0.994633 0.97601 0.999176 0.997867 0.989923 0.973947
          1.03579 1.05812 1.02845 1.03752 1.05094 1.00455 1.00824 0.982077 1.01113 0.993758 0.991288 1.07974
          1.10568 1.08869 1.0985 1.09645 1.07369 1.06364 1.04641 1.03925 1.07453 1.05699 1.04847 1.05252
          1.08736 1.09862 1.06133 1.07894 1.10374 1.08449 1.09694 1.09408 1.07711 1.07126 1.08452 1.05839
          1.03246 1.05073 1.06181 1.03947 1.03521 1.01731 1.02349 1.03633 1.02516 1.03071 1.01105 0.996428
          0.978895 0.982739 1.00921 1.00084 0.983522 1.00796 1.00312 0.99043 0.985916 0.992012 0.986033 1.02852
          1.00558 1.01792 0.99727 0.987976 0.987657 0.978333 1.51686 1.49636 1.51217 1.36564 1.36148 1.42045
          1.42964 1.34348 1.36064 1.33988 1.37333 1.3921 1.341 1.35671 1.30332 1.28982 1.32018 1.26445
          1.26745 1.3142 1.30893 1.27235 1.25221 1.29986 1.26384 1.24361 1.26623 1.23859 1.22672 1.24927
          1.21835 1.21283 1.32095 1.30101 1.30947 1.27423 1.26659 1.25818 1.24611 1.29376 1.26613 1.25128
          1.2297 1.22599 1.22963 1.22287 1.21539 1.18317 1.1459 1.205 1.16985 1.13809 1.17208 1.20822
          1.19242 1.18328 1.18602 1.16949 1.15737 1.13889 1.15355 1.13468 1.15234 1.13985 1.12434 1.17705
          1.15483 1.22039 1.23705 1.21726 1.21977 1.20252 1.20451 1.19567 1.19379 1.20593 1.19247 1.18629
          1.18075 1.18121 1.1748 1.19995 1.19542 1.19192 1.19069 1.18954 1.18395 1.18556 1.1851 1.17716
          1.17856 1.18111 1.17482 1.16859 1.16815 1.16453 1.16311 1.16468 1.17297 1.1582 1.14762 1.15468
          1.1617 1.16169 1.13926 1.13248 1.13508 1.117 1.10619 1.13346 1.12888 1.12246 1.12242 1.11229
          1.1138 1.15742 1.14458 1.14187 1.15484 1.1399 1.14797 1.13427 1.12243 1.12004 1.10818 1.12852
          1.1072 1.24551 1.22297 1.22165 1.20729 1.19623 1.08048 1.13039 1.09477 1.12482 1.10437 1.06727
          1.05518 1.06225 1.07591 1.10007 1.11741 1.09845 1.12267 1.08904 1.11624 1.08599 1.09842 1.068
          1.06757 1.06035 1.07115 1.03983 1.0716 1.05932 1.11421 1.08432 1.04708 1.04765 1.05502 1.03669
          0.997174 0.994147 1.00765 1.00929 0.98404 0.982692 1.04828 1.00485 1.03827 1.02918 1.03163 1.02184
          1.02877 1.01129 1.01398 0.992577 0.990738 0.994087 1.00963 0.98374 1.02741 1.0094 0.995914 0.998283
          0.989844 0.974079 1.0994 1.08812 1.08919 1.09901 1.09693 1.07475 1.07314 1.06129 1.07978 1.06417
          1.07415 1.07941 1.05744 1.047 1.10421 1.0974 1.09454 1.0397 1.04892 1.05296 1.08496 1.07757
          1.07171 1.08498 1.05884 1.03289 1.05117 1.06226 1.0399 1.05154 1.03582 1.02394 1.01775 1.03678
          1.02558 1.03113 1.01145 1.00126 0.996848 0.983577 0.982912 1.00349 0.992321 0.98622 0.990733 0.979139
          1.00833 0.98633 1.00594 1.01831 0.997599 0.988276 0.987954 0.978597 0.960449 0.971057 0.969219 0.949642
          0.951 0.944185 0.93711 0.936792 0.932366 0.940025 0.948778 0.935222 0.929913 0.924653 0.921269 0.91696
          0.921467 0.924822 0.917927 0.912393 0.926472 0.912667 0.910963 0.905887 0.900376 0.908581 0.899555 0.906822
          0.91346 0.90144 0.906062 0.908435 0.914522 0.903415 0.967816 0.975029 0.956638 0.964624 0.959803 0.959648
          0.952752 0.965792 0.948269 0.943402 0.940337 0.976493 0.932699 0.936276 0.92608 0.919293 0.921624 0.913737
          0.923683 0.959723 0.975302 0.954791 0.963073 0.955552 0.969598 0.94437 0.94075 0.931365 0.93656 0.947222
          0.949632 0.959618 0.939307 0.927021 0.966688 0.963399 0.971955 0.945772 0.946574 0.945387 0.960586 0.933073
          0.975558 0.959712 0.955784 0.982301 0.963784 0.951781 0.94166 0.936897 0.931473 0.960545 0.94537 0.937211
          0.971995 0.968644 0.972073 0.95147 0.953831 0.974529 0.93763 0.935295 0.935387 0.908808 0.919932 0.925583
          0.914328 0.932956 0.918553 0.924085 0.913164 0.90274 0.899337 0.906602 0.900562 0.906132 0.905336 0.910233
          0.915219 0.901557 0.929624 0.929103 0.917065 0.919749 0.929264 0.915012 0.907154 0.899859 0.908143 0.903739
          0.924058 0.913111 0.928972 0.915852 0.921544 0.913334 0.903739 0.902199 0.915349 0.902601 0.903842 0.919896
          0.922062 0.923138 0.92893 0.908827 0.908754 0.909252 0.90486 0.896515 0.892732 0.89217 0.888846 0.893105
          0.898571 0.891308 0.887021 0.893082 0.899095 0.889854 0.886794 0.882862 0.885197 0.885687 0.882254 0.880447
          0.883745 0.87867 0.87877 0.876768 0.87582 0.876321 0.875468 0.87951 0.877366 0.89262 0.890827 0.880045
          0.884589 0.884132 0.886884 0.885521 0.881638 0.884094 0.875645 0.875084 0.875135 0.875066 0.875109 0.875171
          0.875196 0.877642 0.876896 0.879021 0.879374 0.879787 0.878421 0.876997 0.877167 0.880564 0.877797 0.878152
          0.876391 0.875962 0.875409 0.87539 0.875818 0.875589 0.875951 0.875497 0.87665 0.876356 0.875796 0.876194
          0.876478 0.876071 0.896577 0.896891 0.894686 0.889726 0.890122 0.898632 0.890948 0.89369 0.888141 0.88209
          0.887077 0.881838 0.885103 0.888942 0.883773 0.881855 0.893141 0.899142 0.898025 0.890889 0.887614 0.894317
          0.881836 0.884067 0.887661 0.882265 0.885579 0.886912 0.881745 0.895639 0.892455 0.894269 0.892036 0.890036
          0.885495 0.886922 0.893901 0.897033 0.897937 0.89377 0.885598 0.888048 0.881025 0.886888 0.881568 0.882816
          0.884323 0.878178 0.877997 0.880662 0.878352 0.879743 0.876623 0.876583 0.876479 0.876156 0.877131 0.876943
          0.878458 0.877067 0.877429 0.879299 0.877192 0.878879 0.881701 0.878292 0.878585 0.877424 0.876554 0.876383
          0.876513 0.876844 0.876958 0.877196 0.876901 0.87703 0.877201 0.878509 0.87715 0.880289 0.879328 0.878546
          0.878407 0.877714 0.877563 0.877425 0.877194 0.878496 0.877166 0.878803 0.880037 0.879087 0.878317 0.8794
          0.877172 0.877076 0.877334 0.877345 0.877463 0.877144 0.877464 0.877377 0.8775 0.87732 0.971718 0.96987
          0.977329 0.960303 0.967791 0.975735 0.96529 0.968448 0.957221 0.951549 0.960389 0.953291 0.950184 0.949308
          0.940503 0.94879 0.940748 0.943893 0.935665 0.933109 0.926432 0.936704 0.925202 0.92685 0.919615 0.921965
          0.912966 0.914002 0.924025 0.913767 0.908691 0.914813 0.906321 0.961054 0.944697 0.937578 0.937253 0.932804
          0.930339 0.925044 0.92183 0.92164 0.918273 0.912709 0.917308 0.908869 0.911272 0.907099 0.900623 0.90617
          0.899798 0.90168 0.903648 0.975803 0.960163 0.955921 0.966661 0.947538 0.951408 0.940852 0.94189 0.937208
          0.956385 0.935448 0.937685 0.960402 0.955236 0.963441 0.944774 0.931804 0.959591 0.949986 0.938924 0.937153
          0.931354 0.967007 0.963529 0.955196 0.972184 0.940595 0.937126 0.946546 0.945374 0.946732 0.982388 0.933275
          0.924431 0.91623 0.9243 0.916773 0.91513 0.910254 0.918858 0.913581 0.902365 0.906476 0.918109 0.903735
          0.904863 0.920348 0.909023 0.925357 0.90676 0.901414 0.90294 0.899533 0.914422 0.906202 0.905406 0.920506
          0.930149 0.915845 0.92239 0.92937 0.933126 0.903106 0.908739 0.904337 0.915356 0.908185 0.903737 0.919872
          0.917007 0.907256 0.899301 0.896746 0.89294 0.892375 0.889037 0.898796 0.893308 0.89327 0.891503 0.890025
          0.8872 0.885851 0.88536 0.883892 0.886972 0.883025 0.882411 0.880596 0.879649 0.878914 0.877498 0.878815
          0.876903 0.875953 0.876452 0.875598 0.89568 0.891916 0.89594 0.895764 0.899014 0.88569 0.890365 0.885709
          0.889054 0.891059 0.889208 0.881795 0.896739 0.892774 0.886718 0.890986 0.896462 0.890376 0.896996 0.894823
          0.889864 0.888278 0.885181 0.882211 0.884258 0.884594 0.88199 0.885645 0.884222 0.881764 0.896211 0.896031
          0.887951 0.894289 0.879912 0.886531 0.882221 0.886938 0.881943 0.898844 0.891302 0.898098 0.887688 0.887213
          0.881977 0.8842 0.881877 0.880378 0.878484 0.878445 0.878428 0.877561 0.877447 0.877717 0.877155 0.877471
          0.877089 0.879916 0.878271 0.8779 0.880736 0.878032 0.880685 0.877279 0.878535 0.878241 0.876656 0.876991
          0.877208 0.876712 0.876287 0.876465 0.876547 0.876225 0.878444 0.878976 0.878498 0.877419 0.877382 0.877069
          0.877002 0.877261 0.877376 0.877377 0.877306 0.877101 0.879413 0.879061 0.877229 0.881829 0.878484 0.876621
          0.877359 0.876618 0.876551 0.876152 0.876437 0.877178 0.876853 0.884732 0.880183 0.879149 0.879502 0.877021
          0.877115 0.877769 0.87649 0.876768 0.875699 0.876084 0.875936 0.875773 0.875533 0.875297 0.875264 0.875511
          0.875318 0.876062 0.875897 0.875612 0.875194 0.875238 0.875214 0.966635 0.959436 0.955598 0.946632 0.952345
          0.936961 0.949865 0.938715 0.929727 0.931393 0.956194 0.969065 0.971317 0.943118 0.935335 0.945284 0.967397
          0.963118 0.954971 0.952967 0.960079 0.959926 0.931564 0.936899 0.944504 0.940616 0.936438 0.943586 0.940463
          0.947239 0.97551 0.960445 0.963634 0.976701 0.959797 0.951029 0.937359 0.941638 0.937011 0.93292 0.918488
          0.91976 0.925157 0.916851 0.915273 0.907165 0.908191 0.904542 0.905435 0.914322 0.905618 0.896866 0.920275
          0.926314 0.917425 0.944183 0.92923 0.915096 0.909077 0.908528 0.899806 0.905706 0.902501 0.903857 0.920162
          0.923815 0.921757 0.908877 0.926611 0.919408 0.914628 0.926204 0.933036 0.924238 0.918686 0.906105 0.901415
          0.899422 0.913836 0.903503 0.902821 0.906658 0.908532 0.910132 0.924385 0.916101 0.913019 0.89888 0.903565
          0.948965 0.940193 0.936953 0.935381 0.971256 0.969419 0.949823 0.951182 0.93727 0.944356 0.932519 0.960638
          0.924957 0.921597 0.912776 0.9214 0.924791 0.917084 0.93006 0.918051 0.912507 0.913572 0.908686 0.90153
          0.906159 0.906924 0.900467 0.911075 0.90599 0.899645 0.960016 0.964878 0.968016 0.975263 0.956836 0.948455
          0.932842 0.899174 0.893156 0.89268 0.890893 0.889919 0.88556 0.884642 0.886587 0.884136 0.881686 0.884174
          0.885259 0.883801 0.880098 0.885749 0.87819 0.876432 0.876509 0.877842 0.876232 0.876105 0.875837 0.875696
          0.87552 0.876373 0.876822 0.875245 0.875221 0.875117 0.875873 0.875135 0.875186 0.87516 0.880614 0.878468
          0.879425 0.879847 0.877045 0.877692 0.879074 0.877214 0.880504 0.879564 0.877418 0.878826 0.876947 0.875633
          0.875996 0.876011 0.875543 0.875439 0.876698 0.876401 0.875458 0.875866 0.897982 0.898958 0.892514 0.887655
          0.8911 0.894685 0.890303 0.884676 0.881991 0.884163 0.887118 0.889784 0.884427 0.881896 0.881912 0.889526
          0.880268 0.896724 0.890149 0.896284 0.894262 0.884443 0.885477 0.886994 0.891908 0.88324 0.89691 0.898836
          0.896679 0.891029 0.889039 0.885126 0.881728 0.888212 0.882136 0.890459 0.895951 0.879341 0.879052 0.878313
          0.878019 0.877203 0.87737 0.8766 0.876413 0.876863 0.876655 0.877086 0.876753 0.877168 0.876185 0.876506
          0.876921 0.876992 0.877106 0.879512 0.880331 0.879311 0.878453 0.881679 0.88647 0.878378 0.878602 0.877344
          0.877204 0.877226 0.877351 0.877247 0.877221 0.878367 0.877431 0.877667 0.877267 0.877529 0.878209 0.880667
          0.878384 0.876601 0.876653 0.877148 0.877394 0.878553 0.8772 0.893182 0.898656 0.89281 0.891381 0.887089
          0.892247 0.896601 0.888918 0.886862 0.882924 0.882315 0.878726 0.969561 0.954949 0.966828 0.955639 0.932298
          0.931748 0.939175 0.975644 0.960349 0.966114 0.976768 0.959853 0.951463 0.936925 0.936833 0.940702 0.959955
          0.94733 0.941652 0.959838 0.946073 0.975667 0.963163 0.955002 0.960035 0.953049 0.949949 0.93714 0.94459
          0.940554 0.936555 0.931722 0.943698 0.92007 0.92978 0.916355 0.905225 0.916506 0.913211 0.901694 0.914612
          0.902445 0.924528 0.924308 0.933128 0.91354 0.902432 0.9038 0.910326 0.91865 0.933156 0.919804 0.925257
          0.916907 0.908123 0.907085 0.914337 0.90527 0.923998 0.920083 0.926327 0.921884 0.9267 0.919482 0.908873
          0.914695 0.902873 0.906171 0.913877 0.906584 0.899436 0.902909 0.908615 0.903572 0.964998 0.960162 0.975476
          0.968224 0.969643 0.97149 0.956996 0.951347 0.948569 0.949103 0.935494 0.940318 0.949984 0.932946 0.925058
          0.912859 0.913662 0.906256 0.937078 0.937404 0.94451 0.932641 0.960841 0.921696 0.924901 0.930183 0.91815
          0.912602 0.921507 0.917186 0.908775 0.901608 0.907015 0.900552 0.91117 0.906081 0.89973 0.894978 0.894405
          0.887912 0.894088 0.893167 0.881604 0.886509 0.891967 0.890528 0.885496 0.881999 0.883479 0.896009 0.898537
          0.888901 0.897959 0.899089 0.891198 0.887835 0.894763 0.887605 0.881972 0.884114 0.882233 0.886514 0.889985
          0.884403 0.881783 0.896325 0.893743 0.891103 0.897304 0.890989 0.899334 0.892871 0.881734 0.885066 0.888178
          0.882102 0.885766 0.884154 0.880283 0.889995 0.878683 0.878674 0.879324 0.880498 0.878335 0.879463 0.877283
          0.877463 0.877405 0.877321 0.877335 0.878373 0.877539 0.877018 0.877123 0.877209 0.877679 0.878456 0.877237
          0.877533 0.879337 0.878865 0.877476 0.878271 0.88064 0.877312 0.87832 0.876677 0.876926 0.876493 0.877011
          0.876991 0.876438 0.876585 0.876488 0.876256 0.875866 0.876597 0.876088 0.88058 0.878254 0.878737 0.879998
          0.879536 0.877439 0.879278 0.877108 0.876781 0.87671 0.87653 0.893221 0.881826 0.884573 0.885803 0.883852
          0.880172 0.885323 0.8759 0.877778 0.877094 0.87966 0.877084 0.880589 0.877513 0.876479 0.878917 0.876921
          0.875765 0.876092 0.876852 0.87611 0.875647 0.876 0.87555 0.87535 0.87579 0.87557 0.875322 0.875286
          0.875619 0.875217 0.87597 0.875259 0.875235 0.898751 0.893258 0.891457 0.892888 0.887161 0.892325 0.896683
          0.888994 0.886935 0.883004 0.882395 0.878816
        </DataArray>
      </PointData>
      <Points>
        <DataArray type="Float32" Name="Coordinates" NumberOfComponents="3" format="ascii">
          -0.0111111 -0.455556 0 -2.07999e-14 -0.47037 0 0.00163476 -0.44672 0.0320777 0 -0.5 0
          -0.0222222 -0.411111 0 2.65178e-13 -0.429167 0 -0.0113817 -0.389769 0.0401719 -1.11063e-14 -0.387586 0
          -0.0333333 -0.366667 0 -2.74554e-14 -0.340792 0 -0.0212467 -0.342422 0.0518792 -0.0444444 -0.322222 0
          -0.0387417 -0.302082 0.0353312 -2.56913e-15 -0.285031 0 -0.0555556 -0.277778 0 -0.0302755 -0.250063 0
          -0.0468172 -0.266713 0.0435372 -0.0666667 -0.233333 0 1.78099e-13 -0.243418 0 0.0158627 -0.229629 0.0622291
          -0.0275303 -0.297271 0.0773162 -0.00175006 -0.338093 0.111436 0.0309767 -0.291032 0.0982486 -0.0396959 -0.25335 0.0880126
          -0.0174372 -0.279875 0.133701 -0.0380221 -0.234041 0.124935 0.0305335 -0.243958 0.120146 -0.00610306 -0.275183 0.180561
          -0.0314703 -0.231619 0.157967 -0.49802 -0.0226798 0.0434719 -0.455556 -0.0111111 0 -0.5 0 0
          -0.47037 2.07993e-14 0 -0.464185 -0.0335048 0.0510121 -0.44672 -0.00163476 0.0320777 -0.455556 0.0111111 0
          -0.429167 -2.65218e-13 0 -0.413519 -0.038459 0.0395347 -0.459259 -0.0227975 0.068281 -0.45346 -0.0515142 0.0851289
          -0.496393 -0.0454245 0.0869251 -0.411111 -0.0222222 0 -0.389769 0.0113817 0.0401719 -0.387586 1.11027e-14 0
          -0.366667 -0.0333333 0 -0.359941 -0.0482778 0.0361446 -0.38546 -0.0527672 0.0611606 -0.410848 -0.00882148 0.0726189
          -0.374817 0.000790507 0.0786657 -0.412507 -0.0816223 0.141122 -0.423647 -0.0425798 0.137513 -0.407547 -0.0613694 0.0914629
          -0.446416 -0.0690619 0.120968 -0.375534 -0.0774349 0.120833 -0.448017 -0.0390722 0.10986 -0.494457 -0.0681125 0.130395
          -0.355899 -0.0640935 0.07753 -0.39214 -0.0211192 0.117223 -0.322222 -0.0444444 0 -0.340792 2.74693e-14 0
          -0.30228 -0.0606369 0.0369434 -0.342422 0.0212467 0.0518792 -0.285031 2.56913e-15 0 -0.315752 -0.0695452 0.0738134
          -0.277778 -0.0555556 0 -0.25692 -0.0702976 0.0376061 -0.233333 -0.0666667 0 -0.250063 -0.0302755 0
          -0.243418 -1.78099e-13 0 -0.238464 -0.0169545 0.0570164 -0.280199 -0.0756425 0.0740964 -0.237749 -0.0834322 0.0767292
          -0.297271 0.0275303 0.0773162 -0.297646 -0.0820038 0.105191 -0.285396 -0.0278944 0.102041 -0.264276 -0.0861379 0.103706
          -0.33341 -0.0841252 0.125781 -0.278967 -0.0945963 0.140958 -0.226403 -0.0953449 0.121559 -0.231399 -0.0285238 0.115146
          -0.338093 0.00175006 0.111436 -0.313718 -0.00273714 0.153379 -0.25335 0.0396959 0.0880126 -0.269657 -0.0507027 0.176467
          -0.449529 -0.0642049 0.159689 -0.454398 -0.0849005 0.156846 -0.491554 -0.0906163 0.173905 -0.461765 -0.100651 0.191078
          -0.460144 -0.0947719 0.209343 -0.421525 -0.0986856 0.182429 -0.404293 -0.0460208 0.163281 -0.370456 -0.0962627 0.168855
          -0.41659 -0.0699865 0.203053 -0.367842 -0.0474256 0.206586 -0.35689 -0.0231717 0.15832 -0.487103 -0.11282 0.217438
          -0.442118 -0.11863 0.228236 -0.444352 -0.103342 0.241194 -0.481453 -0.134857 0.260918 -0.389228 -0.114769 0.217954
          -0.405492 -0.131112 0.257033 -0.392847 -0.0783674 0.247778 -0.362532 -0.127264 0.249687 -0.318062 -0.102466 0.176906
          -0.239153 -0.105037 0.168078 -0.276697 -0.106975 0.184086 -0.246779 -0.115447 0.211286 -0.318047 -0.0182219 0.193628
          -0.279875 0.0174372 0.133701 -0.275183 0.00610306 0.180561 -0.341006 -0.115223 0.216958 -0.292836 -0.118284 0.224186
          -0.320864 -0.0352166 0.238232 -0.356339 -0.062056 0.257194 -0.323488 -0.129328 0.257616 -0.310959 -0.044391 0.279968
          -0.231322 -0.0537152 0.218841 -0.252287 -0.12611 0.252179 -0.260477 -0.0774075 0.285131 -0.273281 -0.00563048 0.224689
          -0.230916 0.0203775 0.207716 -0.270081 -0.016227 0.267169 -0.0291554 -0.210757 0 -0.0559987 -0.228826 0.0532384
          -0.0777778 -0.188889 0 -0.0710803 -0.186038 0.0427358 -0.0426391 -0.175748 0 0.0138129 -0.166441 0.0800412
          -0.0888889 -0.144444 0 -0.0832049 -0.139709 0.0568709 -0.032345 -0.137866 0 -0.0539412 -0.0962706 0
          3.8039e-14 -0.17194 0 -0.0165465 -0.120932 0.0553652 1.6464e-05 -0.137119 0 -0.0544553 -0.209307 0.0914239
          -0.0518708 -0.195002 0.133468 0.0507925 -0.187368 0.113844 -0.0716161 -0.157468 0.100274 -0.0892592 -0.109167 0.0952346
          -0.083834 -0.113667 0.142854 -0.0136227 -0.133142 0.125716 0.0120537 -0.0865012 0.0953422 -0.210757 -0.0291554 0
          -0.209048 -0.0803826 0.038111 -0.188889 -0.0777778 0 -0.190745 -0.0914853 0.0780566 -0.175748 -0.0426391 0
          -0.162965 -0.0907158 0.0430579 -0.144444 -0.0888889 0 -0.137866 -0.0323576 0 -0.124742 -0.0447383 0.0505626
          -0.154536 -0.0138731 0.0828387 -0.129605 -0.0970893 0.0397081 -0.134513 -0.101072 0.0806869 -0.191706 0.0137611 0.0508667
          -0.17194 -3.80383e-14 0 -0.0962706 -0.0539412 0 -0.137119 -1.6464e-05 0 -0.100804 -5.31915e-05 0
          -0.118944 0.0165924 0.0510087 -0.17958 -0.0475693 0.118886 -0.16796 -0.101662 0.117927 -0.124262 -0.107966 0.12621
          -0.122143 -0.0518739 0.112103 -0.165253 0.00278129 0.136818 -0.105199 0.0122274 0.109023 -0.1 -0.1 0
          -0.0946022 -0.104542 0.0476182 -0.0502119 -0.0502119 0 5.31915e-05 -0.100804 0 -0.0256337 -0.0725575 0
          -0.0231796 -0.0490694 0.0570212 0.000425532 -0.0497863 0 0.0171924 -0.0751575 0.0480587 -0.0794706 -0.0339797 0.0773375
          -0.0742681 -0.026158 0 -0.0753424 -0.00180197 0.0416303 -0.0497863 -0.000425532 0 -0.0250988 -0.0255315 0
          -0.0279877 0.00368257 0.0490398 0 -2.1167e-20 0 0.0255315 -0.0250988 0 -0.0435008 -0.0643326 0.12418
          -0.117821 -0.0198638 0.160129 -0.0248896 -0.000634752 0.121816 0.0146775 0.0281549 0.070262 0.00929611 -0.0724123 0.15565
          0.0345121 -0.200938 0.163832 -0.0203775 -0.230916 0.207716 -0.0440393 -0.190886 0.186958 0.00524317 -0.173797 0.200975
          -0.064138 -0.159687 0.148095 -0.025188 -0.0952055 0.196214 -0.0636671 -0.146023 0.199691 -0.0781902 -0.117832 0.190478
          0.0226765 -0.12977 0.174993 -0.0314565 -0.19982 0.230861 -0.0116508 -0.224679 0.260197 -0.0472422 -0.17051 0.229061
          0.00159181 -0.128496 0.235312 -0.0343289 -0.181812 0.270373 -0.0545798 -0.14997 0.25695 0.0458033 -0.1624 0.266624
          -0.0722479 -0.121571 0.238101 -0.190176 -0.10647 0.157857 -0.190421 -0.0331312 0.174005 -0.200492 -0.114963 0.203625
          -0.14877 -0.108906 0.151909 -0.145186 -0.0624164 0.179469 -0.153695 -0.114546 0.191458 -0.117024 -0.113833 0.171221
          -0.231619 0.0314703 0.157967 -0.123774 0.00956268 0.21177 -0.212785 -0.122796 0.24078 -0.167603 -0.121171 0.233387
          -0.20381 -0.0621736 0.276098 -0.150071 -0.0376728 0.237177 -0.117006 -0.120296 0.225972 -0.14237 -0.125833 0.264138
          -0.0882137 -0.0583238 0.238903 -0.19982 0.0314565 0.230861 -0.224679 0.0116508 0.260197 -0.0904905 -0.0610129 0.184106
          -0.0416225 -0.0396807 0.19722 -0.065044 0.0240893 0.173515 -0.00562914 0.010854 0.200958 -0.100464 -0.126862 0.285383
          -0.131661 -0.0689857 0.288245 0.00675257 -0.0431335 0.226111 -0.0283491 -0.0669881 0.263335 -0.0725992 0.0137101 0.242303
          -0.14996 -0.0133265 0.290518 -1.38778e-17 0 0.261898 -0.441436 -0.128191 0.290887 -0.4434 -0.14187 0.277997
          -0.474794 -0.15668 0.304363 -0.444559 -0.1602 0.316386 -0.43702 -0.149441 0.334403 -0.41208 -0.10373 0.277908
          -0.41047 -0.150462 0.301047 -0.368402 -0.139172 0.279946 -0.398104 -0.119145 0.326539 -0.370697 -0.156029 0.321903