<?xml version="1.0"?>
<VTKFile type="UnstructuredGrid" version="0.1" byte_order="LittleEndian">
  <UnstructuredGrid>
    <Piece NumberOfCells="8399" NumberOfPoints="2382">
      <PointData Scalars="solution">
        <DataArray type="Float32" Name="solution" NumberOfComponents="1" format="ascii">
          1.1924 1.19164 1.19117 1.18994 1.19843 1.19477 1.19995 1.20203 1.20979 1.21521 1.21173 1.22561
          1.23104 1.23947 1.24827 1.26122 1.24809 1.27717 1.26098 1.25513 1.22314 1.19804 1.21308 1.24231
          1.21059 1.23427 1.21906 1.18541 1.21606 1.18363 1.18921 1.18711 1.1888 1.18408 1.18835 1.18956
          1.19191 1.19042 1.18248 1.17712 1.17572 1.19393 1.19707 1.19908 1.20302 1.201 1.19094 1.18804
          1.19413 1.16175 1.1672 1.17964 1.16675 1.17335 1.1734 1.16316 1.19219 1.17973 1.21579 1.21193
          1.21886 1.20891 1.23446 1.20417 1.23574 1.24222 1.26224 1.25109 1.25705 1.24966 1.21785 1.23662
          1.22052 1.19877 1.2098 1.21123 1.17915 1.18592 1.21601 1.22367 1.1946 1.18509 1.23676 1.17579
          1.15609 1.15353 1.14668 1.13866 1.13306 1.14332 1.16038 1.15333 1.14064 1.14646 1.17178 1.12734
          1.12128 1.1189 1.10612 1.12769 1.1071 1.1213 1.1127 1.15656 1.18199 1.16154 1.15061 1.16411
          1.20671 1.18249 1.13218 1.13379 1.13845 1.1214 1.11129 1.1159 1.15835 1.12353 1.11056 1.15751
          1.17935 1.13069 1.28954 1.26876 1.312 1.30312 1.32432 1.29501 1.35784 1.3379 1.36436 1.43207
          1.3204 1.36805 1.36897 1.26803 1.25004 1.25101 1.29423 1.31828 1.26711 1.27937 1.35745 1.27946
          1.27006 1.29792 1.26151 1.31194 1.30849 1.34231 1.35227 1.34664 1.29948 1.33806 1.3001 1.289
          1.32364 1.42799 1.36306 1.43785 1.36985 1.24802 1.24833 1.26851 1.29469 1.25082 1.32034 1.39189
          1.36361 1.51398 1.44257 1.50423 1.49208 1.55609 1.46821 1.3903 1.48863 1.4689 1.54311 1.56813
          1.53619 1.59183 1.57718 1.3235 1.24436 1.35359 1.4966 1.27282 1.20939 1.18175 1.20677 1.19324
          1.25381 1.21688 1.20593 1.2155 1.22784 1.17208 1.14535 1.17812 1.17201 1.14375 1.15588 1.13939
          1.17113 1.20545 1.20411 1.16835 1.22907 1.21022 1.19211 1.22338 1.21249 1.19374 1.13791 1.15302
          1.12363 1.16332 1.17105 1.13399 1.17065 1.16998 1.14346 1.22206 1.22218 1.25045 1.2238 1.12545
          1.12336 1.19099 1.15414 1.17304 1.12394 1.15718 1.09353 1.09637 1.08401 1.07665 1.07082 1.10315
          1.084 1.0959 1.07848 1.07326 1.09796 1.06142 1.05802 1.05039 1.03917 1.05218 1.04817 1.0322
          1.05666 1.08816 1.0792 1.10498 1.07321 1.07411 1.06332 1.03901 1.04613 1.05439 1.07052 1.09646
          1.04701 1.04075 1.09813 1.08694 1.09723 1.11669 1.06096 1.08264 1.07245 1.05048 1.06696 1.03046
          1.01769 1.00538 1.02495 1.00777 1.0361 1.01089 0.997079 0.987801 0.987479 0.978161 0.985878 0.990247
          1.01721 1.02342 1.02676 1.03521 1.01213 1.00299 0.985781 0.99183 0.996411 0.978748 0.997932 0.982446
          1.0007 1.00944 0.983133 1.02835 1.03769 1.01073 0.993979 0.992265 1.08775 1.05847 1.07053 1.11745
          1.13544 1.11532 1.13004 1.1094 1.09487 1.08815 1.0935 1.08432 1.07651 1.0624 1.05836 1.11511
          1.12188 1.1036 1.08214 1.09248 1.1171 1.14139 1.03941 1.07554 1.04672 1.05828 1.06749 1.08768
          1.08882 1.04337 1.05801 1.1078 1.11718 1.09697 1.11692 1.11812 1.1206 1.04589 1.0702 1.06472
          1.03099 1.00915 1.01362 1.03637 1.02476 0.989365 0.973705 0.99549 0.994423 0.983466 1.00873 1.0335
          1.0682 1.04922 1.02857 1.03649 1.01009 0.982884 1.00746 0.997209 1.00847 0.984273 1.04808 1.02923
          1.03656 1.0046 1.02799 1.0336 1.02264 0.990431 1.00838 0.993689 1.0443 1.02668 1.0483 1.02112
          0.99616 0.995446 1.19205 1.18642 1.18687 1.19324 1.18525 1.17845 1.17985 1.19681 1.20598 1.20374
          1.19085 1.19369 1.197 1.1761 1.16577 1.1694 1.18239 1.18257 1.19482 1.16986 1.17606 1.16436
          1.21856 1.22088 1.20778 1.2392 1.25581 1.2672 1.24422 1.22133 1.18223 1.18729 1.24027 1.2009
          1.18754 1.21322 1.21926 1.15863 1.14911 1.15604 1.141 1.13533 1.14572 1.16296 1.17438 1.15591
          1.143 1.14886 1.12953 1.12339 1.12098 1.10803 1.12989 1.12341 1.109 1.11465 1.16617 1.15946
          1.1775 1.18448 1.16307 1.15287 1.14071 1.13446 1.13584 1.12357 1.11313 1.11851 1.16 1.12125
          1.1545 1.13264 1.12527 1.28534 1.27544 1.3013 1.31377 1.36083 1.31427 1.35712 1.34384 1.34768
          1.42873 1.26742 1.30957 1.25354 1.28427 1.26675 1.49303 1.51517 1.36751 1.48464 1.39512 1.43615
          1.36038 1.34184 1.38013 1.50731 1.56246 1.36539 1.44519 1.36631 1.43933 1.3126 1.3225 1.26897
          1.36188 1.3297 1.30058 1.28341 1.29423 1.29988 1.32276 1.31003 1.2882 1.32374 1.28539 1.27446
          1.26788 1.25836 1.24632 1.28075 1.25816 1.25034 1.26357 1.239 1.24442 1.2472 1.227 1.23301
          1.20865 1.20942 1.16991 1.18375 1.22796 1.23886 1.23182 1.22509 1.19411 1.1401 1.15459 1.18055
          1.17217 1.13534 1.24341 1.21613 1.2665 1.19139 1.23021 1.17106 1.11568 1.14211 1.18774 1.20439
          1.1716 1.13127 1.25355 1.20857 1.2155 1.1805 1.18487 1.18467 1.17376 1.17661 1.15515 1.1426
          1.17039 1.14457 1.24553 1.22823 1.2359 1.22321 1.22245 1.21058 1.21353 1.20821 1.20074 1.19873
          1.21239 1.19643 1.19718 1.19356 1.18999 1.1912 1.18875 1.19044 1.09814 1.10499 1.09525 1.09965
          1.09762 1.07995 1.08562 1.07814 1.07224 1.08557 1.07466 1.06274 1.05928 1.05158 1.04025 1.05334
          1.05779 1.04927 1.0332 1.09975 1.10683 1.07503 1.08984 1.09914 1.08805 1.11781 1.09832 1.08682
          1.04728 1.06455 1.06164 1.07355 1.06783 1.08045 1.0606 1.0554 1.07185 1.03998 1.03144 1.03707
          1.02583 1.00856 1.01167 1.01859 1.00617 0.997822 0.988478 0.988158 0.978791 0.990939 0.986513 1.03597
          1.02418 1.05161 1.03828 1.02573 1.0292 1.00977 1.02738 1.01162 0.998666 0.994127 0.98396 1.01789
          1.00139 1.00367 0.996913 0.992519 0.9832 0.98638 0.998302 0.979303 1.10035 1.11693 1.12298 1.08883
          1.0807 1.1039 1.12568 1.07072 1.05918 1.04006 1.07982 1.0752 1.05408 1.04774 1.04689 1.13029
          1.11269 1.09459 1.07802 1.117 1.06234 1.1007 1.058 1.11506 1.1392 1.11697 1.08392 1.08856
          1.09338 1.05855 1.04841 1.02917 1.03146 1.00327 1.00431 1.02132 1.03732 1.01368 0.991462 0.988726
          0.983787 1.00931 0.990201 0.974288 0.994806 0.976178 1.03354 1.02724 1.02321 1.00409 1.00894 0.983307
          0.995474 0.993713 1.00753 1.02389 1.02791 1.03584 1.00813 0.984551 1.19552 1.20658 1.22155 1.2265
          1.25707 1.24406 1.24493 1.27331 1.28455 1.26678 1.32106 1.29842 1.30814 1.26123 1.36142 1.33631
          1.35541 1.42794 1.23033 1.24639 1.2928 1.24782 1.32076 1.50209 1.43419 1.51149 1.36048 1.56151
          1.55255 1.57203 1.48267 1.48766 1.38929 1.42527 1.34243 1.33898 1.35116 1.30515 1.44153 1.35457
          1.36351 1.366 1.3511 1.3317 1.26771 1.30446 1.2777 1.26813 1.29769 1.25597 1.23931 1.30488
          1.30965 1.30904 1.29767 1.27264 1.26327 1.31568 1.28199 1.26402 1.24236 1.237 1.24853 1.28618
          1.25179 1.25759 1.24939 1.2465 1.21701 1.22683 1.21221 1.21895 1.20677 1.20539 1.21621 1.17754
          1.17123 1.15431 1.22506 1.22429 1.21536 1.24784 1.20103 1.16565 1.17107 1.17161 1.12492 1.16658
          1.12363 1.17297 1.23023 1.20676 1.1939 1.18558 1.20726 1.16846 1.18225 1.17648 1.21256 1.18352
          1.15306 1.13398 1.12751 1.17098 1.15167 1.14659 1.13846 1.12372 1.15744 1.18045 1.14437 1.23648
          1.21971 1.23539 1.21653 1.2193 1.2284 1.20929 1.20163 1.21244 1.20362 1.19971 1.1977 1.20621
          1.19307 1.19489 1.1994 1.19854 1.18729 1.18053 1.24035 1.20808 1.19598 1.1917 1.17424 1.18061
          1.1946 1.19113 1.19258 1.1899 1.18905 1.18878 1.18322 1.19025 1.18949 1.18481 1.18435 1.18781
          1.17788 1.17648 1.18045 1.16799 1.16256 1.16754 1.17417 1.16393 1.15795 1.16174 1.18745 1.16504
          1.15424 1.17221 1.1472 1.16113 1.13484 1.13898 1.10938 1.11638 1.13153 1.13308 1.12842 1.12198
          1.11183 1.11334 1.12195 1.15686 1.14409 1.14138 1.15429 1.13939 1.14743 1.13377 1.12195 1.10771
          1.11955 1.12803 1.10672 1.11339 1.12992 1.08412 1.09452 1.06212 1.11664 1.13817 1.07943 1.10312
          1.07425 1.12735 1.08023 1.08171 1.08266 1.0763 1.04465 1.08773 1.0974 1.07082 1.06013 1.05821
          1.07067 1.04722 1.05475 1.1218 1.08942 1.14285 1.116 1.11725 1.11754 1.09841 1.04732 1.03946
          1.08823 1.05164 1.06747 1.07191 1.07267 1.09252 1.06746 1.04759 1.00752 0.984813 1.03674 1.00832
          1.01588 1.01414 0.982796 0.983779 0.988438 1.02253 1.01905 1.03398 0.995132 0.975146 0.998513 1.02783
          1.03177 1.026 1.02681 1.00918 1.00292 0.994652 0.976016 0.999201 0.997885 0.989941 0.973959 1.03595
          1.05833 1.02853 1.03757 1.05097 1.00462 1.00835 0.982059 1.01117 0.993784 0.991318 1.07974 1.10567
          1.08869 1.09849 1.09644 1.07369 1.06364 1.04642 1.03926 1.07453 1.057 1.04848 1.05252 1.08736
          1.09861 1.06135 1.07894 1.10373 1.08449 1.09693 1.09407 1.07711 1.07125 1.08451 1.05839 1.03247
          1.05074 1.06181 1.03948 1.03524 1.01732 1.0235 1.03634 1.02517 1.03072 1.01107 0.996443 0.978908
          0.982753 1.00924 1.00085 0.983539 1.00797 1.00313 0.990441 0.985929 0.992025 0.986044 1.02856 1.00559
          1.01793 0.99728 0.987987 0.987668 0.978343 1.51675 1.49626 1.51207 1.36543 1.36154 1.4204 1.42957
          1.3435 1.36054 1.33979 1.37325 1.39205 1.34105 1.35662 1.30336 1.28985 1.32009 1.26437 1.26748
          1.3143 1.30902 1.2725 1.25237 1.29998 1.26399 1.24378 1.26642 1.23878 1.22717 1.24948 1.21859
          1.21304 1.32087 1.30093 1.30939 1.27416 1.26652 1.25811 1.24604 1.29368 1.26605 1.2512 1.22964
          1.22588 1.22986 1.22286 1.21531 1.18325 1.14547 1.20495 1.16979 1.17199 1.20849 1.1925 1.18349
          1.18623 1.16974 1.1574 1.13906 1.15358 1.13454 1.15252 1.1399 1.12444 1.17703 1.15485 1.22056
          1.23721 1.21742 1.21995 1.20269 1.20467 1.19583 1.19395 1.20611 1.19263 1.18645 1.18092 1.18137
          1.17496 1.20013 1.19558 1.19209 1.19085 1.1897 1.1841 1.18572 1.18526 1.17732 1.17872 1.18127
          1.17498 1.16874 1.1683 1.16468 1.16326 1.16484 1.17313 1.15836 1.14775 1.15483 1.16184 1.16189
          1.13938 1.13253 1.13521 1.11709 1.10626 1.13358 1.12899 1.12256 1.12252 1.11238 1.1139 1.15756
          1.14471 1.142 1.15498 1.14003 1.1481 1.13439 1.12254 1.12014 1.10827 1.12864 1.10729 1.24545
          1.22291 1.22159 1.20723 1.19618 1.08702 1.08022 1.13057 1.09494 1.12477 1.10407 1.049 1.04873
          1.06221 1.07473 1.10016 1.1173 1.09849 1.12263 1.08885 1.11627 1.08603 1.09842 1.06818 1.06763
          1.06033 1.07064 1.03983 1.07155 1.05907 1.11423 1.0844 1.04664 1.04758 1.05501 1.03707 1.00906
          0.996858 0.994283 1.00768 0.98392 1.01381 0.982584 1.02895 1.04831 1.0382 1.0315 1.02182 1.02874
          1.00497 1.01129 0.992601 0.990762 0.994098 1.00962 0.9837 1.02737 1.00934 0.995829 0.998264 0.989827
          0.974059 1.09947 1.08817 1.08925 1.09909 1.097 1.07479 1.07318 1.06131 1.07981 1.06419 1.0742
          1.07946 1.05747 1.04701 1.10429 1.09748 1.09462 1.0397 1.04895 1.05299 1.08502 1.07762 1.07176
          1.08504 1.05887 1.0329 1.0512 1.0623 1.03992 1.05153 1.03581 1.02394 1.01774 1.0368 1.02559
          1.03115 1.01145 1.00125 0.996834 0.983571 0.982906 1.00349 0.992314 0.98621 0.990728 0.979126 1.00833
          0.986323 1.00594 1.01832 0.997598 0.988271 0.987949 0.978591 0.960477 0.971088 0.969249 0.949666 0.951024
          0.944207 0.93713 0.936811 0.932384 0.940045 0.948801 0.93524 0.92993 0.924668 0.921283 0.916973 0.921481
          0.924836 0.91794 0.912404 0.926486 0.912677 0.910974 0.905896 0.900383 0.908591 0.899562 0.906831 0.913471
          0.901447 0.90607 0.908443 0.914532 0.903422 0.967846 0.975061 0.956663 0.964651 0.959829 0.959672 0.952775
          0.965812 0.948291 0.943422 0.940354 0.976523 0.932715 0.936292 0.926093 0.919305 0.921635 0.913745 0.923694
          0.959746 0.975332 0.954811 0.963096 0.955568 0.969616 0.944387 0.940764 0.931378 0.936573 0.94724 0.949649
          0.959638 0.93932 0.927029 0.966723 0.982337 0.963441 0.971987 0.945785 0.946579 0.945397 0.960584 0.933079
          0.975591 0.959734 0.955791 0.982353 0.963762 0.951797 0.941674 0.936906 0.931478 0.960558 0.945358 0.937213
          0.971998 0.968642 0.972034 0.951455 0.953814 0.974517 0.937625 0.935293 0.935373 0.908815 0.919941 0.925591
          0.914333 0.932969 0.918561 0.924092 0.913167 0.902745 0.899341 0.906607 0.900564 0.906136 0.905337 0.910236
          0.915218 0.901555 0.92963 0.929104 0.917068 0.919749 0.929263 0.915007 0.907152 0.899854 0.908139 0.903732
          0.924061 0.91311 0.928963 0.915848 0.921536 0.913336 0.903738 0.902196 0.915342 0.902596 0.903836 0.919892
          0.922056 0.923128 0.928917 0.90882 0.908746 0.909242 0.904851 0.896522 0.892737 0.892175 0.88885 0.893109
          0.898577 0.891312 0.887025 0.893086 0.8991 0.889857 0.886798 0.882864 0.885199 0.885689 0.882256 0.880448
          0.883747 0.878671 0.878771 0.876769 0.87582 0.876321 0.875468 0.87951 0.877366 0.892623 0.890829 0.880045
          0.88459 0.884133 0.886884 0.885521 0.881637 0.884093 0.875645 0.875084 0.875135 0.875066 0.875109 0.875171
          0.875195 0.877642 0.876896 0.879021 0.879374 0.879787 0.87842 0.876996 0.877165 0.880563 0.877795 0.878149
          0.876389 0.875962 0.875408 0.87539 0.875818 0.875588 0.87595 0.875496 0.876649 0.876354 0.875794 0.876192
          0.876475 0.876069 0.896579 0.896892 0.894685 0.889726 0.89012 0.898632 0.890948 0.893688 0.888141 0.882089
          0.887075 0.881836 0.885101 0.888939 0.883769 0.881851 0.893138 0.899141 0.898021 0.890886 0.887609 0.894309
          0.881833 0.884063 0.887656 0.88226 0.885572 0.886903 0.881739 0.895637 0.89245 0.894263 0.892031 0.890032
          0.885491 0.886916 0.893893 0.897024 0.897929 0.893761 0.885591 0.88804 0.881018 0.88688 0.881561 0.882808
          0.884315 0.878176 0.877993 0.88066 0.878349 0.879737 0.876621 0.87658 0.876476 0.876153 0.877128 0.876939
          0.878453 0.877062 0.877424 0.879295 0.877188 0.878874 0.881693 0.878285 0.878578 0.877419 0.87655 0.876379
          0.876508 0.876839 0.876953 0.877191 0.876895 0.877024 0.877194 0.878501 0.877144 0.880284 0.879322 0.87854
          0.878402 0.877708 0.877556 0.877418 0.877186 0.878489 0.877158 0.878794 0.880029 0.879079 0.878309 0.879391
          0.877165 0.877069 0.877326 0.877337 0.877455 0.877136 0.877455 0.877368 0.877492 0.877312 0.971676 0.969828
          0.977265 0.960258 0.967738 0.975691 0.965246 0.968406 0.957181 0.951511 0.960347 0.953249 0.950147 0.94927
          0.940468 0.948752 0.940713 0.943856 0.935631 0.933076 0.926403 0.93667 0.925171 0.926819 0.919587 0.921938
          0.91294 0.913978 0.923998 0.91374 0.908667 0.914788 0.906298 0.961014 0.944661 0.937543 0.937219 0.932771
          0.930306 0.925013 0.921801 0.921611 0.918245 0.912683 0.917279 0.908844 0.911246 0.907075 0.900601 0.906145
          0.899775 0.901658 0.903626 0.975714 0.960113 0.955884 0.966572 0.9475 0.951379 0.94082 0.941858 0.937185
          0.9564 0.935443 0.937674 0.960354 0.955198 0.963409 0.944738 0.931775 0.959547 0.949955 0.938904 0.937125
          0.931337 0.977293 0.967015 0.963556 0.955194 0.972094 0.940591 0.937122 0.946531 0.945377 0.946723 0.982343
          0.933244 0.924409 0.916221 0.924284 0.91676 0.915112 0.910236 0.918834 0.913566 0.902354 0.906466 0.918096
          0.903721 0.90485 0.920324 0.909 0.925338 0.906739 0.901397 0.902919 0.899513 0.914404 0.906183 0.90539
          0.920498 0.930134 0.915835 0.92238 0.929364 0.933117 0.903095 0.908729 0.904326 0.915346 0.908174 0.903726
          0.919861 0.916992 0.907243 0.89928 0.896724 0.89292 0.892355 0.889017 0.898775 0.893288 0.893251 0.891483
          0.890007 0.887182 0.885833 0.885342 0.883875 0.886954 0.883007 0.882394 0.880579 0.879633 0.878897 0.877483
          0.878799 0.876887 0.875938 0.876436 0.875583 0.895669 0.891906 0.895928 0.895751 0.898998 0.88568 0.890353
          0.885698 0.889041 0.891044 0.889196 0.881783 0.896721 0.892756 0.886703 0.890969 0.89645 0.890362 0.896978
          0.894809 0.889848 0.888262 0.885167 0.882196 0.884242 0.884581 0.881977 0.885629 0.884207 0.881748 0.896201
          0.89602 0.88794 0.894278 0.879901 0.886521 0.882211 0.886928 0.881932 0.898831 0.891289 0.898086 0.887676
          0.8872 0.881963 0.884188 0.881866 0.880368 0.878473 0.878433 0.878418 0.877552 0.877437 0.877706 0.877144
          0.87746 0.877078 0.879901 0.878257 0.877886 0.880723 0.878019 0.880671 0.877264 0.878521 0.878228 0.876643
          0.876978 0.877195 0.876699 0.876274 0.876451 0.876534 0.876212 0.878434 0.878967 0.878488 0.87741 0.877372
          0.877059 0.87699 0.877252 0.877367 0.877367 0.877296 0.87709 0.879401 0.87905 0.877216 0.881818 0.878473
          0.87661 0.877347 0.876606 0.876538 0.876139 0.876425 0.877167 0.876841 0.884715 0.880167 0.879134 0.879486
          0.877006 0.8771 0.877753 0.876476 0.876753 0.875684 0.876069 0.875921 0.875758 0.875518 0.875281 0.875248
          0.875496 0.875303 0.876048 0.875883 0.875597 0.875179 0.875222 0.875199 0.966604 0.959419 0.955599 0.946613
          0.952317 0.936942 0.949862 0.938704 0.929715 0.931382 0.956159 0.96896 0.971289 0.943092 0.935314 0.945253
          0.967408 0.963117 0.954973 0.952973 0.960085 0.959934 0.931562 0.936895 0.944506 0.940616 0.936439 0.94359
          0.940466 0.947242 0.975526 0.960429 0.963574 0.976718 0.959804 0.951026 0.937344 0.941636 0.937004 0.932908
          0.918477 0.91975 0.925148 0.916842 0.915266 0.907156 0.908183 0.904533 0.905427 0.914314 0.905609 0.896858
          0.920261 0.926295 0.917413 0.944151 0.92921 0.915081 0.909066 0.908515 0.899795 0.905695 0.902491 0.903845
          0.920157 0.923812 0.921754 0.908873 0.926611 0.919407 0.914626 0.926203 0.933034 0.924232 0.918682 0.906099
          0.901408 0.899417 0.913833 0.903499 0.902816 0.906652 0.908529 0.910125 0.924376 0.916088 0.913009 0.898872
          0.903556 0.94897 0.940197 0.936957 0.935384 0.971266 0.969428 0.949829 0.951188 0.937274 0.944361 0.932521
          0.960646 0.924958 0.921597 0.912775 0.921401 0.924792 0.917084 0.930062 0.918051 0.912506 0.91357 0.908684
          0.901527 0.906156 0.906921 0.900464 0.911074 0.905988 0.899642 0.960024 0.964888 0.968025 0.975274 0.956844
          0.948461 0.932844 0.89917 0.893151 0.892674 0.890887 0.889914 0.885554 0.884636 0.88658 0.884129 0.881679
          0.884168 0.885254 0.883795 0.880092 0.885744 0.878183 0.876425 0.876502 0.877835 0.876225 0.876098 0.875831
          0.87569 0.875513 0.876367 0.876815 0.875238 0.875215 0.875111 0.875867 0.875129 0.87518 0.875154 0.880607
          0.878461 0.879419 0.87984 0.877038 0.877686 0.879067 0.877207 0.880499 0.879558 0.877412 0.87882 0.87694
          0.875627 0.875989 0.876005 0.875537 0.875432 0.876692 0.876394 0.875452 0.875859 0.897974 0.89895 0.892506
          0.887647 0.891092 0.894677 0.890296 0.884669 0.881984 0.884156 0.887111 0.889778 0.88442 0.881889 0.881905
          0.889518 0.88026 0.896714 0.89014 0.896275 0.894251 0.884434 0.885468 0.886985 0.891898 0.883231 0.896903
          0.898829 0.896673 0.891021 0.889031 0.885119 0.88172 0.888206 0.88213 0.890451 0.895942 0.879334 0.879045
          0.878305 0.878011 0.877196 0.877363 0.876593 0.876406 0.876856 0.876648 0.877079 0.876746 0.877161 0.876178
          0.876499 0.876913 0.876984 0.877098 0.879503 0.880323 0.879303 0.878445 0.88167 0.88646 0.878369 0.878593
          0.877336 0.877196 0.877218 0.877343 0.877239 0.877212 0.878358 0.877422 0.877659 0.877258 0.87752 0.878202
          0.88066 0.878376 0.876594 0.876646 0.877141 0.877387 0.878543 0.877191 0.893177 0.898652 0.892806 0.891377
          0.887084 0.892243 0.896597 0.888914 0.886857 0.882919 0.882309 0.87872 0.96958 0.954918 0.96679 0.955645
          0.932277 0.931736 0.939156 0.975655 0.960355 0.966092 0.976768 0.959845 0.951462 0.936918 0.936827 0.940691
          0.959943 0.947321 0.941643 0.959799 0.946044 0.975634 0.963139 0.954981 0.960014 0.953033 0.94993 0.937125
          0.944575 0.940542 0.936542 0.931709 0.943685 0.920055 0.929761 0.916341 0.905213 0.916496 0.913199 0.901682
          0.9146 0.902433 0.924518 0.924298 0.933117 0.913529 0.902421 0.903788 0.910315 0.918639 0.933134 0.919787
          0.925242 0.916892 0.90811 0.907072 0.914324 0.905258 0.923986 0.92007 0.926315 0.921872 0.926688 0.919471
          0.908861 0.914683 0.902861 0.906159 0.913866 0.906573 0.899424 0.902897 0.908603 0.903561 0.964987 0.960149
          0.975468 0.968214 0.969634 0.971482 0.956985 0.951336 0.948557 0.949092 0.935482 0.940306 0.949973 0.932934
          0.925047 0.912848 0.913651 0.906245 0.937066 0.937393 0.944499 0.93263 0.960832 0.921685 0.92489 0.930172
          0.918139 0.912591 0.921495 0.917175 0.908764 0.901597 0.907004 0.900541 0.911158 0.906069 0.899719 0.894967
          0.894394 0.887901 0.894076 0.893156 0.881594 0.886499 0.891957 0.890517 0.885486 0.881989 0.883468 0.895998
          0.898525 0.88889 0.897948 0.899077 0.891187 0.887824 0.894751 0.887594 0.881962 0.884103 0.882222 0.886503
          0.889974 0.884392 0.881772 0.896314 0.893732 0.891092 0.897293 0.890978 0.899323 0.89286 0.881723 0.885055
          0.888167 0.882091 0.885755 0.884143 0.880273 0.889984 0.878674 0.878664 0.879314 0.880488 0.878324 0.879453
          0.877274 0.877454 0.877395 0.877311 0.877325 0.878362 0.877529 0.877009 0.877113 0.877199 0.877668 0.878446
          0.877227 0.877522 0.879327 0.878855 0.877466 0.87826 0.880629 0.877302 0.878309 0.876667 0.876916 0.876482
          0.877001 0.876981 0.876427 0.876575 0.876477 0.876245 0.875856 0.876587 0.876077 0.880569 0.878244 0.878727
          0.879987 0.879525 0.877428 0.879268 0.877098 0.87677 0.8767 0.876519 0.893209 0.881816 0.884562 0.885792
          0.883841 0.880161 0.885312 0.87589 0.877767 0.877084 0.879649 0.877074 0.880578 0.877503 0.876468 0.878906
          0.87691 0.875754 0.876081 0.876841 0.876099 0.875636 0.875989 0.875539 0.87534 0.875779 0.875559 0.875311
          0.875276 0.875608 0.875206 0.87596 0.875249 0.875224 0.898739 0.893246 0.891446 0.892877 0.88715 0.892314
          0.896672 0.888983 0.886924 0.882993 0.882384 0.878806
        </DataArray>
      </PointData>
      <Points>
        <DataArray type="Float32" Name="Coordinates" NumberOfComponents="3" format="ascii">
          -0.0111111 -0.455556 0 -2.07999e-14 -0.47037 0 0.00163476 -0.44672 0.0320777 0 -0.5 0
          -0.0222222 -0.411111 0 2.65178e-13 -0.429167 0 -0.0113817 -0.389769 0.0401719 -1.11063e-14 -0.387586 0
          -0.0333333 -0.366667 0 -2.74554e-14 -0.340792 0 -0.0212467 -0.342422 0.0518792 -0.0444444 -0.322222 0
          -0.0387417 -0.302082 0.0353312 -2.56913e-15 -0.285031 0 -0.0555556 -0.277778 0 -0.0302755 -0.250063 0
          -0.0468172 -0.266713 0.0435372 -0.0666667 -0.233333 0 1.78099e-13 -0.243418 0 0.0158627 -0.229629 0.0622291
          -0.0275303 -0.297271 0.0773162 -0.00175006 -0.338093 0.111436 0.0309767 -0.291032 0.0982486 -0.0396959 -0.25335 0.0880126
          -0.0174372 -0.279875 0.133701 -0.0380221 -0.234041 0.124935 0.0305335 -0.243958 0.120146 -0.00610306 -0.275183 0.180561
          -0.0314703 -0.231619 0.157967 -0.49802 -0.0226798 0.0434719 -0.455556 -0.0111111 0 -0.5 0 0
          -0.47037 2.07993e-14 0 -0.464185 -0.0335048 0.0510121 -0.44672 -0.00163476 0.0320777 -0.455556 0.0111111 0
          -0.429167 -2.65218e-13 0 -0.413519 -0.038459 0.0395347 -0.459259 -0.0227975 0.068281 -0.45346 -0.0515142 0.0851289
          -0.496393 -0.0454245 0.0869251 -0.411111 -0.0222222 0 -0.389769 0.0113817 0.0401719 -0.387586 1.11027e-14 0
          -0.366667 -0.0333333 0 -0.359941 -0.0482778 0.0361446 -0.38546 -0.0527672 0.0611606 -0.410848 -0.00882148 0.0726189
          -0.374817 0.000790507 0.0786657 -0.412507 -0.0816223 0.141122 -0.423647 -0.0425798 0.137513 -0.407547 -0.0613694 0.0914629
          -0.446416 -0.0690619 0.120968 -0.375534 -0.0774349 0.120833 -0.448017 -0.0390722 0.10986 -0.494457 -0.0681125 0.130395
          -0.355899 -0.0640935 0.07753 -0.39214 -0.0211192 0.117223 -0.322222 -0.0444444 0 -0.340792 2.74693e-14 0
          -0.30228 -0.0606369 0.0369434 -0.342422 0.0212467 0.0518792 -0.285031 2.56913e-15 0 -0.315752 -0.0695452 0.0738134
          -0.277778 -0.0555556 0 -0.25692 -0.0702976 0.0376061 -0.233333 -0.0666667 0 -0.250063 -0.0302755 0
          -0.243418 -1.78099e-13 0 -0.238464 -0.0169545 0.0570164 -0.280199 -0.0756425 0.0740964 -0.237749 -0.0834322 0.0767292
          -0.297271 0.0275303 0.0773162 -0.297646 -0.0820038 0.105191 -0.285396 -0.0278944 0.102041 -0.264276 -0.0861379 0.103706
          -0.33341 -0.0841252 0.125781 -0.278967 -0.0945963 0.140958 -0.226403 -0.0953449 0.121559 -0.231399 -0.0285238 0.115146
          -0.338093 0.00175006 0.111436 -0.313718 -0.00273714 0.153379 -0.25335 0.0396959 0.0880126 -0.269657 -0.0507027 0.176467
          -0.449529 -0.0642049 0.159689 -0.454398 -0.0849005 0.156846 -0.491554 -0.0906163 0.173905 -0.461765 -0.100651 0.191078
          -0.460144 -0.0947719 0.209343 -0.421525 -0.0986856 0.182429 -0.404293 -0.0460208 0.163281 -0.370456 -0.0962627 0.168855
          -0.41659 -0.0699865 0.203053 -0.367842 -0.0474256 0.206586 -0.35689 -0.0231717 0.15832 -0.487103 -0.11282 0.217438
          -0.442118 -0.11863 0.228236 -0.444352 -0.103342 0.241194 -0.481453 -0.134857 0.260918 -0.389228 -0.114769 0.217954
          -0.405492 -0.131112 0.257033 -0.392847 -0.0783674 0.247778 -0.362532 -0.127264 0.249687 -0.318062 -0.102466 0.176906
          -0.239153 -0.105037 0.168078 -0.276697 -0.106975 0.184086 -0.246779 -0.115447 0.211286 -0.318047 -0.0182219 0.193628
          -0.279875 0.0174372 0.133701 -0.275183 0.00610306 0.180561 -0.341006 -0.115223 0.216958 -0.292836 -0.118284 0.224186
          -0.320864 -0.0352166 0.238232 -0.356339 -0.062056 0.257194 -0.323488 -0.129328 0.257616 -0.310959 -0.044391 0.279968
          -0.231322 -0.0537152 0.218841 -0.252287 -0.12611 0.252179 -0.260477 -0.0774075 0.285131 -0.273281 -0.00563048 0.224689
          -0.230916 0.0203775 0.207716 -0.270081 -0.016227 0.267169 -0.0291554 -0.210757 0 -0.0559987 -0.228826 0.0532384
          -0.0777778 -0.188889 0 -0.0710803 -0.186038 0.0427358 -0.0426391 -0.175748 0 0.0138129 -0.166441 0.0800412
          -0.0888889 -0.144444 0 -0.0832049 -0.139709 0.0568709 -0.032345 -0.137866 0 -0.0539412 -0.0962706 0
          3.8039e-14 -0.17194 0 -0.0165465 -0.120932 0.0553652 1.6464e-05 -0.137119 0 -0.0544553 -0.209307 0.0914239
          -0.0518708 -0.195002 0.133468 0.0507925 -0.187368 0.113844 -0.0716161 -0.157468 0.100274 -0.0892592 -0.109167 0.0952346
          -0.083834 -0.113667 0.142854 -0.0136227 -0.133142 0.125716 0.0120537 -0.0865012 0.0953422 -0.210757 -0.0291554 0
          -0.209048 -0.0803826 0.038111 -0.188889 -0.0777778 0 -0.190745 -0.0914853 0.0780566 -0.175748 -0.0426391 0
          -0.162965 -0.0907158 0.0430579 -0.144444 -0.0888889 0 -0.137866 -0.0323576 0 -0.124742 -0.0447383 0.0505626
          -0.154536 -0.0138731 0.0828387 -0.129605 -0.0970893 0.0397081 -0.134513 -0.101072 0.0806869 -0.191706 0.0137611 0.0508667
          -0.17194 -3.80383e-14 0 -0.0962706 -0.0539412 0 -0.137119 -1.6464e-05 0 -0.100804 -5.31915e-05 0
          -0.118944 0.0165924 0.0510087 -0.17958 -0.0475693 0.118886 -0.16796 -0.101662 0.117927 -0.124262 -0.107966 0.12621
          -0.122143 -0.0518739 0.112103 -0.165253 0.00278129 0.136818 -0.105199 0.0122274 0.109023 -0.1 -0.1 0
          -0.0946022 -0.104542 0.0476182 -0.0502119 -0.0502119 0 5.31915e-05 -0.100804 0 -0.0256337 -0.0725575 0
          -0.0231796 -0.0490694 0.0570212 0.000425532 -0.0497863 0 0.0171924 -0.0751575 0.0480587 -0.0794706 -0.0339797 0.0773375
          -0.0742681 -0.026158 0 -0.0753424 -0.00180197 0.0416303 -0.0497863 -0.000425532 0 -0.0250988 -0.0255315 0
          -0.0279877 0.00368257 0.0490398 0 -2.1167e-20 0 0.0255315 -0.0250988 0 -0.0435008 -0.0643326 0.12418
          -0.117821 -0.0198638 0.160129 -0.0248896 -0.000634752 0.121816 0.0146775 0.0281549 0.070262 0.00929611 -0.0724123 0.15565
          0.0345121 -0.200938 0.163832 -0.0203775 -0.230916 0.207716 -0.0440393 -0.190886 0.186958 0.00524317 -0.173797 0.200975
          -0.064138 -0.159687 0.148095 -0.025188 -0.0952055 0.196214 -0.0636671 -0.146023 0.199691 -0.0781902 -0.117832 0.190478
          0.0226765 -0.12977 0.174993 -0.0314565 -0.19982 0.230861 -0.0116508 -0.224679 0.260197 -0.0472422 -0.17051 0.229061
          0.00159181 -0.128496 0.235312 -0.0343289 -0.181812 0.270373 -0.0545798 -0.14997 0.25695 0.0458033 -0.1624 0.266624
          -0.0722479 -0.121571 0.238101 -0.190176 -0.10647 0.157857 -0.190421 -0.0331312 0.174005 -0.200492 -0.114963 0.203625
          -0.14877 -0.108906 0.151909 -0.145186 -0.0624164 0.179469 -0.153695 -0.114546 0.191458 -0.117024 -0.113833 0.171221
          -0.231619 0.0314703 0.157967 -0.123774 0.00956268 0.21177 -0.212785 -0.122796 0.24078 -0.167603 -0.121171 0.233387
          -0.20381 -0.0621736 0.276098 -0.150071 -0.0376728 0.237177 -0.117006 -0.120296 0.225972 -0.14237 -0.125833 0.264138
          -0.0882137 -0.0583238 0.238903 -0.19982 0.0314565 0.230861 -0.224679 0.0116508 0.260197 -0.0904905 -0.0610129 0.184106
          -0.0416225 -0.0396807 0.19722 -0.065044 0.0240893 0.173515 -0.00562914 0.010854 0.200958 -0.100464 -0.126862 0.285383
          -0.131661 -0.0689857 0.288245 0.00675257 -0.0431335 0.226111 -0.0283491 -0.0669881 0.263335 -0.0725992 0.0137101 0.242303
          -0.14996 -0.0133265 0.290518 -1.38778e-17 0 0.261898 -0.441436 -0.128191 0.290887 -0.4434 -0.14187 0.277997
          -0.474794 -0.15668 0.304363 -0.444559 -0.1602 0.316386 -0.43702 -0.149441 0.334403 -0.41208 -0.10373 0.277908
          -0.41047 -0.150462 0.301047 -0.368402 -0.139172 0.279946 -0.398104 -0.119145 0.326539 -0.370697 -0.156029 0.321903