<?xml version="1.0"?>
<VTKFile type="UnstructuredGrid" version="0.1" byte_order="LittleEndian">
  <UnstructuredGrid>
    <Piece NumberOfCells="8330" NumberOfPoints="2427">
      <PointData Scalars="solution">
        <DataArray type="Float32" Name="solution" NumberOfComponents="1" format="ascii">
          1.20509 1.20464 1.20736 1.20276 1.20787 1.21139 1.20989 1.21343 1.21623 1.2217 1.21969 1.22771
          1.23082 1.23734 1.24977 1.22752 1.2452 1.26094 1.27378 1.28943 1.26662 1.27417 1.25209 1.24045
          1.21408 1.2641 1.2396 1.23545 1.21589 1.21337 1.20562 1.20309 1.20516 1.20328 1.20346 1.19982
          1.20428 1.20841 1.2079 1.20085 1.19671 1.21042 1.21175 1.21399 1.21939 1.21679 1.22032 1.20629
          1.22165 1.20941 1.1848 1.18761 1.17228 1.18709 1.19213 1.19437 1.19815 1.17882 1.18273 1.19738
          1.20955 1.19717 1.17993 1.23287 1.22829 1.23629 1.25032 1.22828 1.21496 1.25322 1.25283 1.2407
          1.27832 1.26086 1.26783 1.27407 1.2378 1.22044 1.23723 1.21432 1.19277 1.19661 1.21563 1.19222
          1.24082 1.16525 1.16236 1.15516 1.16742 1.15592 1.17771 1.16842 1.14254 1.14432 1.13877 1.13279
          1.12124 1.12005 1.12024 1.13537 1.1522 1.14431 1.13226 1.12219 1.12599 1.17539 1.16157 1.19419
          1.18386 1.19591 1.21285 1.15621 1.12839 1.12796 1.16743 1.15576 1.13843 1.14584 1.17753 1.17836
          1.1544 1.30133 1.30338 1.27797 1.32663 1.33529 1.29712 1.33741 1.34989 1.36689 1.38179 1.38536
          1.44703 1.39028 1.3304 1.41905 1.33492 1.39168 1.28536 1.24713 1.26869 1.28298 1.29129 1.34108
          1.28317 1.29525 1.31361 1.29401 1.26 1.28066 1.32827 1.34184 1.35298 1.37619 1.43984 1.3323
          1.29401 1.32846 1.33303 1.30038 1.34188 1.38115 1.42909 1.23288 1.27188 1.26393 1.28096 1.27731
          1.26461 1.24721 1.35232 1.41032 1.45327 1.45897 1.53971 1.52455 1.57719 1.47515 1.49812 1.45891
          1.51839 1.57534 1.59141 1.56631 1.61567 1.6003 1.35076 1.35398 1.27577 1.38558 1.30526 1.34484
          1.33114 1.38975 1.25356 1.22676 1.21267 1.19375 1.22941 1.25232 1.21092 1.23309 1.2288 1.17754
          1.1568 1.18037 1.16167 1.17876 1.186 1.16799 1.19732 1.23017 1.2121 1.24693 1.22515 1.21342
          1.19548 1.22792 1.24123 1.22419 1.15141 1.18421 1.20087 1.1554 1.16048 1.19338 1.15727 1.25953
          1.27835 1.23218 1.26363 1.18091 1.14775 1.16372 1.18391 1.17514 1.14431 1.09849 1.09803 1.09591
          1.11494 1.09923 1.09924 1.07554 1.06726 1.05284 1.07424 1.08257 1.07469 1.05207 1.0723 1.10294
          1.07981 1.06279 1.04805 1.05234 1.05942 1.09981 1.08516 1.06175 1.06 1.11619 1.10365 1.12648
          1.11579 1.0979 1.08148 1.07154 1.09429 1.06627 1.03789 1.03984 1.03118 1.02236 1.02934 1.04318
          1.01855 1.0103 1.00256 1.01372 1.01634 1.0082 0.998394 0.993827 1.04692 1.02922 1.02486 1.03463
          1.03846 1.02747 1.02412 1.04242 1.00623 1.01126 0.997054 1.01171 0.993217 1.01432 0.994129 0.992758
          0.991664 1.04869 1.03205 1.02577 1.00703 1.08636 1.05877 1.0926 1.12223 1.12749 1.13286 1.14451
          1.14353 1.09643 1.08444 1.09401 1.12235 1.10299 1.1288 1.09993 1.12725 1.12291 1.13294 1.13049
          1.05741 1.06579 1.05397 1.1014 1.08499 1.06992 1.0968 1.06944 1.09603 1.12125 1.10892 1.16074
          1.07261 1.07653 1.07131 1.08252 1.09439 1.06169 1.09213 1.09363 1.02718 1.03881 1.02205 1.0434
          1.0197 1.00212 1.01954 1.00094 1.00687 1.02711 1.00162 1.04631 1.02196 1.06577 1.05384 1.05713
          1.0376 1.02011 1.01634 0.994136 1.00422 1.03046 1.01172 1.02929 0.996372 1.00772 1.04781 1.03527
          1.05476 1.03615 1.06476 1.05061 1.03772 1.00607 1.01139 1.01253 1.02837 1.00796 1.01171 1.03133
          1.05335 1.02156 1.0529 1.03574 1.00103 1.00787 1.01136 0.993648 1.02024 1.00848 1.20257 1.20294
          1.19933 1.20376 1.20036 1.19624 1.21124 1.21888 1.20579 1.20877 1.22128 1.19167 1.19767 1.19391
          1.18666 1.18438 1.17842 1.1872 1.18233 1.1719 1.19678 1.19703 1.20929 1.17981 1.23235 1.2358
          1.21514 1.25261 1.2403 1.26774 1.27883 1.26107 1.2387 1.19559 1.19648 1.21179 1.25962 1.22371
          1.1649 1.16202 1.15485 1.16707 1.1773 1.15622 1.17075 1.14226 1.14404 1.13863 1.13253 1.12098
          1.11982 1.12002 1.15192 1.13525 1.14405 1.13194 1.12575 1.12192 1.17549 1.19541 1.1912 1.15882
          1.19603 1.1766 1.20034 1.17975 1.16949 1.15613 1.15628 1.12752 1.12809 1.16893 1.15449 1.13577
          1.29483 1.29619 1.33139 1.31618 1.37949 1.3505 1.37267 1.29425 1.36076 1.45249 1.32745 1.23852
          1.28623 1.27632 1.28187 1.51594 1.52731 1.4731 1.37888 1.41196 1.44729 1.36568 1.38249 1.39529
          1.35218 1.50151 1.59026 1.51858 1.56802 1.50268 1.38173 1.46413 1.38971 1.32188 1.35855 1.31385
          1.33988 1.33437 1.28232 1.28747 1.41673 1.37427 1.30707 1.29411 1.28697 1.32826 1.33645 1.30516
          1.2995 1.29615 1.33746 1.30036 1.29012 1.27324 1.26735 1.29508 1.27347 1.25725 1.26456 1.28519
          1.25661 1.25493 1.24688 1.23849 1.24016 1.19845 1.17046 1.14603 1.1587 1.18808 1.18771 1.24554
          1.16465 1.22418 1.22976 1.25521 1.24134 1.23181 1.21082 1.20218 1.18507 1.13505 1.17587 1.24591
          1.22765 1.2121 1.2125 1.19289 1.21419 1.16696 1.16143 1.16306 1.26088 1.24562 1.25024 1.23756
          1.23097 1.24029 1.22718 1.22799 1.22194 1.21983 1.21657 1.22477 1.21418 1.2162 1.21169 1.2137
          1.21024 1.2082 1.20762 1.20545 1.20504 1.20309 1.11472 1.09777 1.09899 1.09562 1.09898 1.09822
          1.07529 1.07398 1.05263 1.06702 1.08231 1.07441 1.05186 1.07198 1.10262 1.09966 1.104 1.1265
          1.10635 1.10737 1.08087 1.05913 1.07951 1.09322 1.12795 1.07169 1.08053 1.0724 1.11551 1.0626
          1.04789 1.05238 1.06152 1.03771 1.04299 1.0292 1.03966 1.031 1.0222 1.01621 1.0184 1.01021
          1.0136 1.00811 1.00255 0.998382 0.990675 0.993774 1.06629 1.04191 1.04827 1.03438 1.04838 1.04063
          1.02551 1.01924 1.01152 1.02934 1.01132 1.00997 0.992737 1.04669 1.02913 1.02469 1.03857 1.02762
          1.00612 1.01121 0.993127 0.996988 1.01438 0.994009 1.08673 1.11558 1.13012 1.10105 1.07241 1.09203
          1.05893 1.09998 1.06535 1.05127 1.0592 1.14409 1.13212 1.09318 1.10792 1.13216 1.07244 1.07604
          1.09426 1.09635 1.06946 1.13302 1.12359 1.15684 1.12668 1.08505 1.04687 1.02302 1.03483 1.03899
          1.04311 1.00839 0.989984 1.01129 1.02325 1.00822 1.01962 1.01658 0.992261 1.02726 1.0021 1.01955
          1.00126 1.001 1.04648 1.05074 1.01759 1.03619 1.06483 0.993067 1.02223 1.00377 1.02147 0.99478
          1.02027 1.00789 1.05484 1.03776 1.01171 1.02835 0.996635 1.21195 1.22229 1.23144 1.23792 1.24576
          1.27361 1.26696 1.2611 1.28916 1.23975 1.33452 1.30303 1.32592 1.29735 1.38051 1.36439 1.34858
          1.38341 1.32753 1.45308 1.38161 1.28631 1.34716 1.30089 1.33276 1.51543 1.5338 1.454 1.59049
          1.5729 1.51603 1.49318 1.41377 1.45249 1.36037 1.34999 1.37886 1.32836 1.46249 1.37998 1.3942
          1.32301 1.33836 1.28423 1.35502 1.28779 1.2968 1.28314 1.42294 1.32798 1.3148 1.29638 1.29165
          1.33372 1.26981 1.27909 1.29519 1.25924 1.26128 1.30146 1.268 1.27364 1.2752 1.2523 1.23811
          1.29135 1.22371 1.23219 1.23801 1.24701 1.25689 1.25438 1.20983 1.23156 1.22834 1.16258 1.16693
          1.18693 1.27472 1.20284 1.24641 1.19337 1.23447 1.20353 1.18795 1.16504 1.18862 1.14447 1.23892
          1.19893 1.20074 1.19507 1.16887 1.21194 1.226 1.17444 1.17021 1.1584 1.19256 1.1545 1.14617
          1.17752 1.15379 1.15616 1.252 1.25109 1.23924 1.23564 1.23239 1.22747 1.23952 1.22809 1.22194
          1.2193 1.21654 1.21992 1.21158 1.21508 1.20606 1.20957 1.20905 1.21196 1.19167 1.21458 1.19608
          1.2167 1.19706 1.19691 1.19531 1.21019 1.2137 1.20502 1.20405 1.20817 1.2076 1.20063 1.19647
          1.20313 1.20308 1.2029 1.20543 1.19939 1.19789 1.18729 1.1941 1.17978 1.18239 1.18449 1.18678
          1.17192 1.19178 1.1785 1.17897 1.15863 1.17476 1.19589 1.17083 1.17722 1.13529 1.12777 1.12814
          1.15566 1.17675 1.15586 1.14401 1.15182 1.12569 1.16706 1.15619 1.15483 1.1649 1.16202 1.1352
          1.144 1.13859 1.13194 1.12186 1.11993 1.11978 1.14223 1.13248 1.12093 1.10773 1.14452 1.1304
          1.13088 1.12967 1.09989 1.0822 1.07589 1.07113 1.09387 1.07237 1.05145 1.09639 1.09193 1.05919
          1.06534 1.07238 1.10754 1.08027 1.11501 1.08693 1.06144 1.12411 1.11542 1.16204 1.12249 1.12681
          1.12757 1.09345 1.05896 1.0845 1.10323 1.1011 1.07239 1.04644 1.04309 1.02231 1.01926 0.996388
          1.004 1.01952 1.01679 1.00144 1.05392 1.02313 1.03065 0.991521 1.01138 1.03139 0.995227 1.03494
          1.00101 1.00773 1.01003 1.0392 1.0406 1.03849 1.02714 1.0195 1.00137 1.00168 1.00206 1.01912
          1.01421 0.994048 1.05708 1.04669 1.03749 1.02875 1.04191 1.04837 1.04832 1.02952 1.06631 1.02283
          1.01205 1.00819 1.01116 1.00998 1.08099 1.07944 1.10259 1.0523 1.05916 1.07197 1.07439 1.09887
          1.09887 1.06255 1.04786 1.09936 1.07177 1.09775 1.11467 1.09546 1.09815 1.08233 1.07397 1.07523
          1.06702 1.05185 1.05261 1.02753 1.03437 1.0291 1.04667 1.04297 1.02918 1.02467 1.01149 1.01118
          0.993116 1.01619 1.0081 1.0061 0.996983 0.993771 1.0255 0.992719 1.03964 1.03769 1.03099 1.02219
          1.00254 1.01838 1.01358 1.0102 0.998378 0.990677 1.54049 1.46112 1.51016 1.5242 1.43841 1.37984
          1.44875 1.3451 1.38503 1.3865 1.39077 1.4108 1.35566 1.36851 1.32459 1.35145 1.36352 1.29405
          1.28385 1.34076 1.3302 1.29172 1.28317 1.28049 1.32872 1.29562 1.26781 1.31428 1.27906 1.2616
          1.25789 1.23894 1.29144 1.2204 1.26389 1.23339 1.3377 1.2973 1.32831 1.30408 1.28928 1.26689
          1.27266 1.26501 1.28692 1.23832 1.2157 1.25193 1.23179 1.24669 1.18085 1.18539 1.20094 1.21348
          1.16263 1.15438 1.2102 1.17709 1.22413 1.23117 1.19671 1.18411 1.19381 1.16653 1.16941 1.15443
          1.15086 1.1385 1.25626 1.21056 1.16762 1.25294 1.23587 1.23251 1.23946 1.22257 1.21945 1.2117
          1.20902 1.2061 1.20959 1.21452 1.19678 1.19694 1.19593 1.19183 1.19192 1.20406 1.20063 1.19644
          1.20314 1.20291 1.19938 1.19785 1.1872 1.19407 1.17939 1.1823 1.19174 1.18672 1.18442 1.17842
          1.17182 1.19679 1.17664 1.17483 1.17712 1.16783 1.16102 1.15524 1.15569 1.1517 1.12755 1.12803
          1.14385 1.12559 1.16693 1.15544 1.15471 1.16479 1.16191 1.14388 1.13495 1.13835 1.13178 1.12181
          1.1199 1.11967 1.14211 1.13238 1.12085 1.24541 1.26036 1.23103 1.23765 1.22198 1.21168 1.14438
          1.0969 1.13275 1.10896 1.12953 1.06185 1.10282 1.07653 1.09987 1.05398 1.0726 1.11386 1.12586
          1.12259 1.11526 1.08655 1.07028 1.10124 1.09379 1.05736 1.09229 1.06572 1.08496 1.05975 1.07097
          1.05914 1.06168 1.01632 1.04633 1.00777 0.99316 1.02778 1.02019 1.00422 1.02197 1.01972 0.994131
          1.00688 1.0352 1.04757 1.06646 1.03886 1.02205 1.04849 1.03191 1.01249 1.00606 1.01134 1.02401
          1.00695 0.991616 1.06579 1.04341 0.996322 1.00162 1.03837 1.02716 1.01954 1.00093 1.00208 1.01423
          0.994055 1.11594 1.10332 1.10264 1.09884 1.09947 1.09889 1.08113 1.07957 1.05911 1.07202 1.11465
          1.09768 1.09542 1.05216 1.07442 1.06256 1.04785 1.0981 1.08233 1.07397 1.07521 1.06702 1.05185
          1.05261 1.04222 1.03445 1.02564 1.0116 0.992688 1.02734 1.02906 1.0467 1.04298 1.02917 1.02471
          1.01114 1.00611 1.0162 0.993132 1.00808 0.99696 0.993733 1.0377 1.03965 1.031 1.02221 1.0184
          1.01359 1.00244 1.01016 0.998288 0.990732 0.972644 0.983506 0.980201 0.967669 0.966104 0.975044 0.956296
          0.957801 0.964628 0.947455 0.944158 0.946186 0.943075 0.941664 0.930694 0.938924 0.929532 0.928797 0.930494
          0.930727 0.918529 0.917821 0.917512 0.912573 0.922298 0.918674 0.910275 0.930941 0.918527 0.932433 0.914389
          0.918813 0.920249 0.908263 0.986235 0.98819 0.976631 0.980633 0.974025 0.963243 0.980249 0.983647 0.969998
          0.973616 0.962271 0.961311 0.956353 0.953203 0.957719 0.984444 0.943776 0.94325 0.942376 0.924404 0.9319
          0.981018 0.970582 0.966998 0.986133 0.980726 0.970309 0.950877 0.948453 0.956406 0.961455 0.956771 0.955699
          0.941084 0.988154 0.981697 0.972558 0.968168 0.992704 0.975632 0.962565 0.950245 0.939322 0.946025 0.956764
          0.953302 0.967484 0.992799 0.977226 0.994586 0.993973 0.976899 0.971089 0.975554 0.960581 0.958564 0.957118
          0.988159 0.973036 0.976326 0.978223 0.975906 0.948533 0.966209 0.947729 0.948718 0.93308 0.924332 0.9273
          0.942921 0.930207 0.933475 0.932229 0.93984 0.918061 0.911416 0.912503 0.915037 0.915675 0.917718 0.923097
          0.918269 0.912404 0.922069 0.931901 0.930203 0.934888 0.941167 0.91875 0.911876 0.919116 0.92697 0.915069
          0.919065 0.944863 0.933927 0.943777 0.93452 0.930676 0.940877 0.926784 0.92058 0.919395 0.914913 0.915181
          0.927128 0.93203 0.93456 0.933312 0.920918 0.917595 0.909757 0.908029 0.908158 0.90329 0.899432 0.900127
          0.907272 0.90284 0.899752 0.910133 0.898739 0.901634 0.907537 0.89723 0.894173 0.894231 0.89688 0.892502
          0.891763 0.892801 0.889639 0.889734 0.888944 0.887079 0.887627 0.886854 0.886365 0.886118 0.886399 0.889759
          0.888438 0.903286 0.892275 0.895982 0.895871 0.898897 0.892496 0.899901 0.893898 0.892865 0.886505 0.886285
          0.886206 0.886308 0.886368 0.888246 0.889976 0.890967 0.89186 0.888036 0.888762 0.889458 0.88825 0.887212
          0.886599 0.887158 0.886549 0.886594 0.8869 0.886644 0.886796 0.887059 0.887794 0.887423 0.887365 0.887047
          0.886995 0.887913 0.887455 0.887286 0.903175 0.906083 0.902488 0.90909 0.907817 0.899286 0.910175 0.913579
          0.904901 0.903947 0.895032 0.892729 0.895052 0.898215 0.900257 0.894852 0.900905 0.90685 0.896571 0.905453
          0.900439 0.894904 0.897606 0.892574 0.898243 0.894724 0.894703 0.911995 0.908298 0.907101 0.90359 0.910692
          0.905286 0.898741 0.896918 0.898215 0.892822 0.907537 0.901603 0.90874 0.89867 0.905797 0.897874 0.892793
          0.894587 0.892691 0.894559 0.901297 0.897955 0.893136 0.891093 0.8919 0.889501 0.890917 0.888937 0.8903
          0.887755 0.887885 0.888339 0.887617 0.888039 0.889248 0.88802 0.888509 0.890479 0.889151 0.890665 0.890804
          0.892776 0.887641 0.888134 0.887638 0.887666 0.888554 0.887844 0.887921 0.888263 0.888117 0.88812 0.889571
          0.888449 0.888277 0.88823 0.89197 0.889518 0.890679 0.889718 0.889135 0.889908 0.888819 0.888528 0.888445
          0.888502 0.888484 0.888287 0.888264 0.890003 0.889856 0.891657 0.890719 0.889526 0.888182 0.888417 0.88834
          0.888462 0.88926 0.888366 0.888399 0.888503 0.888392 0.983422 0.988093 0.986174 0.980121 0.974991 0.967622
          0.987395 0.973544 0.976593 0.980612 0.980213 0.964601 0.983428 0.966357 0.974102 0.963228 0.962255 0.957772
          0.961351 0.944136 0.946153 0.957767 0.945347 0.956272 0.96969 0.953192 0.943748 0.931528 0.94321 0.932401
          0.93095 0.930681 0.93042 0.920241 0.918953 0.918492 0.919163 0.972583 0.966058 0.956255 0.947443 0.943059
          0.941605 0.930635 0.938938 0.929514 0.928619 0.918511 0.922229 0.918515 0.919173 0.917382 0.912505 0.912351
          0.914389 0.910585 0.996705 0.992417 0.978487 0.974362 0.974836 0.980878 0.977267 0.961638 0.95992 0.953578
          0.958525 0.961122 0.949926 0.980953 0.970326 0.967371 0.951111 0.956471 0.956591 0.941228 0.964915 0.987948
          0.981865 0.975397 0.951736 0.968196 0.96623 0.947999 0.96243 0.971085 0.957612 0.993869 0.949699 0.945712
          0.945414 0.944707 0.936632 0.931415 0.931172 0.943966 0.930308 0.93369 0.922746 0.919936 0.92062 0.917144
          0.922216 0.917525 0.934899 0.933226 0.939619 0.927393 0.924015 0.916024 0.907985 0.917795 0.911586 0.915568
          0.925121 0.931861 0.928321 0.940941 0.935706 0.916935 0.91747 0.926971 0.915334 0.931833 0.930483 0.918939
          0.919089 0.908284 0.908584 0.910053 0.908027 0.907849 0.903348 0.900132 0.899491 0.907242 0.904135 0.90168
          0.898627 0.899743 0.89688 0.89725 0.894171 0.894227 0.892493 0.891752 0.892799 0.889717 0.888927 0.889733
          0.888429 0.889625 0.887605 0.887058 0.886831 0.886342 0.886375 0.886094 0.910958 0.912676 0.907708 0.902261
          0.907276 0.905511 0.913979 0.903809 0.904717 0.897222 0.896763 0.896587 0.900359 0.903463 0.896858 0.896788
          0.909543 0.901166 0.904519 0.903102 0.898852 0.905127 0.90623 0.909091 0.907796 0.899899 0.89928 0.895388
          0.89481 0.894074 0.89538 0.895873 0.89121 0.894095 0.892655 0.907174 0.905445 0.899931 0.8967 0.892858
          0.894818 0.898165 0.900799 0.900509 0.897608 0.894716 0.892579 0.894566 0.891901 0.889881 0.891615 0.888474
          0.888336 0.888967 0.889051 0.890397 0.888687 0.888119 0.888493 0.888273 0.890967 0.891227 0.888935 0.888068
          0.891657 0.889855 0.888892 0.889515 0.887726 0.88805 0.88829 0.887661 0.886811 0.887872 0.887352 0.887482
          0.889647 0.889546 0.890344 0.892855 0.888449 0.888378 0.888159 0.888308 0.888319 0.8884 0.888345 0.88805
          0.888273 0.88912 0.89051 0.887851 0.890856 0.888069 0.887504 0.887756 0.888087 0.887332 0.887556 0.887177
          0.888528 0.889478 0.888477 0.88827 0.887872 0.892561 0.892264 0.890797 0.890002 0.888213 0.888203 0.887195
          0.886716 0.886871 0.88711 0.886477 0.886563 0.886523 0.88628 0.88626 0.886556 0.886335 0.887242 0.88698
          0.886886 0.886588 0.886181 0.919005 0.93251 0.920262 0.918536 0.908272 0.981573 0.979986 0.987946 0.980631
          0.992335 0.968084 0.962788 0.945731 0.958295 0.956842 0.964966 0.950122 0.965421 0.988255 0.97589 0.975868
          0.948925 0.955797 0.963899 0.957241 0.980907 0.970219 0.982139 0.969801 0.98327 0.974122 0.967241 0.941073
          0.9567 0.950945 0.959777 0.939444 0.956342 0.961356 0.9455 0.961716 0.973624 0.95784 0.992275 0.974731
          0.992751 0.996517 0.974609 0.987454 0.960305 0.958476 0.945309 0.944745 0.930052 0.931968 0.939279 0.940302
          0.927456 0.919376 0.918834 0.912275 0.919739 0.91779 0.935059 0.940528 0.919638 0.916489 0.921127 0.920445
          0.926687 0.915325 0.924211 0.930035 0.93317 0.94325 0.931528 0.934612 0.916673 0.915641 0.911596 0.909027
          0.931238 0.909236 0.931019 0.919393 0.922843 0.943463 0.930832 0.92261 0.912659 0.920305 0.957802 0.967642
          0.975002 0.964628 0.966079 0.946207 0.944185 0.947482 0.956284 0.983428 0.98013 0.972598 0.930738 0.938982
          0.930471 0.930657 0.943099 0.941643 0.929565 0.928698 0.922278 0.919212 0.914416 0.910606 0.912371 0.918553
          0.918525 0.917408 0.912525 0.980629 0.980169 0.976598 0.963263 0.986179 0.988095 0.962281 0.953229 0.943812
          0.907246 0.901689 0.89861 0.903116 0.908609 0.899981 0.895783 0.896802 0.893906 0.89086 0.89223 0.894199
          0.896838 0.892764 0.898914 0.895335 0.890904 0.892456 0.887408 0.887881 0.887231 0.887288 0.886912 0.886918
          0.887596 0.886358 0.886493 0.886837 0.886178 0.886348 0.88629 0.886093 0.886251 0.886338 0.889454 0.892573
          0.888155 0.889939 0.888222 0.889727 0.888414 0.888912 0.889703 0.891281 0.888161 0.886608 0.886579 0.886578
          0.886754 0.886996 0.887115 0.886914 0.887804 0.88742 0.887215 0.886538 0.906962 0.899891 0.899265 0.907739
          0.903089 0.905734 0.900876 0.900501 0.897705 0.894679 0.892613 0.894014 0.894852 0.900178 0.891291 0.899891
          0.904409 0.908754 0.905481 0.902367 0.894972 0.898343 0.894134 0.898327 0.898715 0.89277 0.906331 0.914007
          0.909573 0.904648 0.90445 0.900251 0.896835 0.901118 0.895183 0.893946 0.903647 0.90731 0.911101 0.8973
          0.896711 0.889203 0.889011 0.890451 0.889426 0.891705 0.887806 0.888009 0.887849 0.887552 0.887588 0.888055
          0.888015 0.887554 0.888196 0.887946 0.888918 0.888141 0.887865 0.89013 0.890088 0.890109 0.889807 0.891927
          0.889538 0.88826 0.888457 0.888583 0.888428 0.888413 0.888437 0.888379 0.888341 0.888996 0.8887 0.888278
          0.888507 0.891011 0.888942 0.8919 0.888905 0.887687 0.887907 0.888213 0.888359 0.890719 0.888478 0.888461
          0.888239 0.908037 0.910067 0.904134 0.89973 0.903346 0.907859 0.89948 0.900124 0.897232 0.894155 0.892474
          0.891733 0.889621 0.887086 0.986162 0.972861 0.981786 0.980712 0.953127 0.962414 0.955873 0.939571 0.950098
          0.994555 0.976933 0.977231 0.992772 0.970571 0.984408 0.973564 0.95904 0.960683 0.938383 0.961456 0.948313
          0.957646 0.98816 0.968193 0.945987 0.956722 0.980991 0.97028 0.9836 0.96996 0.966965 0.980187 0.956337
          0.940968 0.950847 0.956289 0.943126 0.943621 0.930157 0.921844 0.919161 0.911736 0.933528 0.945136 0.93043
          0.933931 0.943054 0.920562 0.932193 0.920267 0.910832 0.923248 0.931736 0.939907 0.927515 0.919179 0.918773
          0.917748 0.920549 0.942432 0.930105 0.933189 0.924176 0.93252 0.90989 0.918241 0.91221 0.924107 0.915691
          0.911466 0.920249 0.930946 0.918782 0.980569 0.976573 0.973973 0.963206 0.986156 0.988105 0.974985 0.964591
          0.983429 0.967622 0.961271 0.953219 0.962246 0.946198 0.957773 0.944166 0.980131 0.990639 0.94389 0.930747
          0.930504 0.918543 0.908371 0.96606 0.947444 0.956266 0.972587 0.938929 0.930696 0.94307 0.941655 0.929534
          0.928795 0.922305 0.918672 0.914391 0.918528 0.910261 0.917818 0.917506 0.912564 0.90729 0.898992 0.904045
          0.89295 0.903626 0.894781 0.894737 0.900187 0.910773 0.912149 0.907109 0.913533 0.896738 0.901409 0.90509
          0.894882 0.898202 0.906833 0.907972 0.900416 0.900793 0.899757 0.909151 0.899166 0.897634 0.894718 0.892494
          0.894943 0.895011 0.892673 0.910059 0.90334 0.906299 0.903167 0.899732 0.907358 0.892682 0.895038 0.893796
          0.898851 0.895932 0.901565 0.895826 0.891818 0.889392 0.890462 0.891906 0.888378 0.888446 0.888347 0.888308
          0.888469 0.88911 0.887994 0.888123 0.88838 0.888241 0.888785 0.887973 0.88803 0.890816 0.889163 0.888475
          0.889065 0.889442 0.890432 0.88947 0.887869 0.887704 0.887831 0.887625 0.888015 0.888094 0.8876 0.886991
          0.887576 0.88742 0.887233 0.891836 0.888884 0.891032 0.888743 0.888076 0.890939 0.888294 0.887712 0.887849
          0.887751 0.887366 0.91011 0.907284 0.898691 0.896834 0.892449 0.892227 0.894186 0.892751 0.887296 0.886905
          0.88797 0.888178 0.889923 0.888375 0.8897 0.887555 0.88888 0.889675 0.887056 0.886711 0.886955 0.886553
          0.887143 0.886826 0.886512 0.886518 0.886288 0.886437 0.886789 0.886476 0.886232 0.886199 0.88631 0.886125
          0.88629 0.886044 0.902812 0.899717 0.908144 0.903265 0.899398 0.908012 0.900095 0.897191 0.894129 0.892453
          0.891712 0.889594 0.887045
        </DataArray>
      </PointData>
      <Points>
        <DataArray type="Float32" Name="Coordinates" NumberOfComponents="3" format="ascii">
          -0.0111111 -0.455556 0 0.0111111 -0.455556 0 -0.00567436 -0.42833 0.0274944 0.00530845 -0.477724 0.0217437
          2.65108e-13 -0.429167 0 -0.0222222 -0.411111 0 0.0222222 -0.411111 0 -0.0167691 -0.396306 0.0223738
          2.60387e-13 -0.381944 0 -0.0333333 -0.366667 0 -0.0195013 -0.364081 0.0387426 -2.74693e-14 -0.340792 0
          -0.0342599 -0.335719 0.0199553 -0.0444444 -0.322222 0 -2.56913e-15 -0.285031 0 -0.0215946 -0.329378 0.0627844
          -0.0411133 -0.301271 0.0282917 -0.0555556 -0.277778 0 -0.0302755 -0.250063 0 -0.0666667 -0.233333 0
          -0.0504753 -0.258481 0.0388497 1.78099e-13 -0.243418 0 0.0113002 -0.264224 0.0501809 -0.0288683 -0.289354 0.0818904
          -0.00530919 -0.334425 0.105205 -0.0449979 -0.237909 0.0884867 -0.0287419 -0.262424 0.117653 0.0303125 -0.252756 0.10816
          -0.00917571 -0.300525 0.13336 -0.0185123 -0.253587 0.171238 -0.455556 0.0111111 0 -0.5 0 0
          -0.455556 -0.0111111 0 -0.477724 -0.00530845 0.0217437 -0.474622 -0.0151416 0.0177959 -0.49802 -0.0226798 0.0434719
          -0.445306 -0.0274609 0.029886 -0.429167 -2.65178e-13 0 -0.42833 0.00567436 0.0274944 -0.45193 -0.0153282 0.0577044
          -0.452072 -0.045471 0.0716657 -0.411111 -0.0222222 0 -0.391403 -0.0379097 0.0267745 -0.396306 0.0167691 0.0223738
          -0.366667 -0.0333333 0 -0.381944 -2.60471e-13 0 -0.364081 0.0195013 0.0387426 -0.39656 -0.0491329 0.0572063
          -0.341378 -0.0530385 0.0386295 -0.388351 0.000155938 0.0689406 -0.466828 -0.0510256 0.119446 -0.422626 -0.067792 0.111516
          -0.444555 -0.0825735 0.150027 -0.465462 -0.0599166 0.106603 -0.496393 -0.0454245 0.0869251 -0.45304 -0.0315899 0.090665
          -0.420961 -0.0206271 0.0915175 -0.494457 -0.0681125 0.130395 -0.431225 -0.0455392 0.137202 -0.370637 -0.0711308 0.102618
          -0.358319 -0.0614907 0.0714819 -0.380966 -0.0181791 0.120584 -0.387663 -0.0840858 0.141226 -0.322222 -0.0444444 0
          -0.340792 2.74554e-14 0 -0.309489 -0.0536428 0.0193148 -0.285031 2.56913e-15 0 -0.329378 0.0215946 0.0627844
          -0.318032 -0.0742506 0.089675 -0.264224 -0.0113002 0.0510362 -0.277778 -0.0555556 0 -0.289988 -0.0648765 0.0426955
          -0.233333 -0.0666667 0 -0.251902 -0.0711739 0.0369209 -0.250063 -0.0302755 0 -0.243418 -1.78099e-13 0
          -0.27002 -0.0773692 0.074121 -0.264424 -0.0897784 0.117523 -0.236253 -0.0309819 0.122478 -0.334425 0.00530919 0.105205
          -0.341874 -0.0842834 0.129001 -0.33416 -0.010664 0.150982 -0.300527 0.00917483 0.133359 -0.302933 -0.0942459 0.14742
          -0.289354 0.0288682 0.0818901 -0.460479 -0.0762776 0.173803 -0.491554 -0.0906163 0.173905 -0.454341 -0.100117 0.189236
          -0.424648 -0.0615183 0.177059 -0.4062 -0.102935 0.190574 -0.376483 -0.0372534 0.171842 -0.353122 -0.0997119 0.175096
          -0.487103 -0.11282 0.217438 -0.437611 -0.0903094 0.222856 -0.442343 -0.116676 0.224012 -0.460288 -0.112332 0.241807
          -0.481453 -0.134857 0.260918 -0.435331 -0.133569 0.260808 -0.435757 -0.113524 0.269812 -0.408907 -0.120237 0.231529
          -0.384003 -0.0618188 0.221265 -0.365841 -0.115423 0.218641 -0.403333 -0.086987 0.253772 -0.383346 -0.130911 0.257858
          -0.371243 -0.0774177 0.273208 -0.323889 -0.0229648 0.199158 -0.304288 -0.110861 0.201066 -0.25156 -0.104223 0.168248
          -0.237719 -0.0519231 0.203681 -0.290908 -0.00041434 0.17803 -0.253588 0.0185119 0.171238 -0.343635 -0.0432397 0.227187
          -0.328015 -0.127836 0.252986 -0.326 -0.0536246 0.280649 -0.252289 -0.114481 0.208086 -0.302784 -0.0265776 0.241572
          -0.271291 -0.124976 0.24695 -0.213176 -0.0581878 0.265362 -0.283309 -0.00771863 0.214293 -0.247197 0.00743305 0.226749
          -0.258789 -0.00719651 0.258137 -0.0291554 -0.210757 0 -0.0670065 -0.209856 0.0275948 0.0143387 -0.211394 0.0668679
          -0.0777778 -0.188889 0 -0.0426391 -0.175748 0 -0.0619606 -0.205637 0.0595521 -0.00919778 -0.147072 0.0668939
          -0.0812016 -0.157194 0.0318634 -0.0888889 -0.144444 0 -0.0323576 -0.137866 0 -0.091148 -0.127078 0.0192999
          -0.0539412 -0.0962706 0 -0.0946022 -0.104542 0.0476182 -0.0763626 -0.152663 0.0776541 -0.0349825 -0.0908719 0.0593819
          3.80413e-14 -0.17194 0 -1.6464e-05 -0.137119 0 -0.0600839 -0.185735 0.107373 -0.0394904 -0.225341 0.133904
          0.0223949 -0.171744 0.122133 -0.083834 -0.113667 0.142854 -0.0728317 -0.146909 0.121463 -0.0892592 -0.109167 0.0952346
          -0.0181515 -0.131816 0.137122 -0.201942 -0.0806126 0.0316606 -0.188889 -0.0777778 0 -0.210757 -0.0291554 0
          -0.225404 -0.0861156 0.0795871 -0.209898 -0.0123111 0.0656279 -0.175748 -0.0426391 0 -0.147486 -0.091752 0.0273814
          -0.144444 -0.0888889 0 -0.137866 -0.032345 0 -0.0962706 -0.0539412 0 -0.133978 -0.0440267 0.0833977
          -0.177457 -0.0932291 0.0754335 -0.130856 -0.101636 0.0804559 -0.17194 -3.80413e-14 0 -0.210757 0.0291554 0
          -0.145886 0.00989897 0.0664418 -0.137119 1.6464e-05 0 -0.0976661 0.0234029 0.0479139 -0.210234 -0.0995695 0.132647
          -0.171621 -0.0212336 0.120825 -0.164688 -0.103009 0.123856 -0.122547 -0.108617 0.13016 -0.12009 -0.0478637 0.143297
          -0.23791 0.0449978 0.0884859 -0.225342 0.0394901 0.133903 -0.0923079 -0.00926133 0.103202 -0.1 -0.1 0
          -0.0733604 -0.0488106 0.0524604 -5.31915e-05 -0.100804 0 -0.0502119 -0.0502119 0 -0.026158 -0.0742681 0
          -0.000425532 -0.0497863 0 0.0137673 -0.0766744 0.0500439 -0.0244935 -0.0299564 0.075837 -0.100804 5.31915e-05 0
          -0.0725575 -0.0256337 0 -0.0497863 0.000425532 0 -0.0255315 -0.0250988 0 -0.0234692 0.0135354 0.0494302
          0 0 0 0.0251023 -0.0251095 0 -0.0605886 -0.0594925 0.11426 0.00926132 -0.0923078 0.103202
          -0.0278935 -0.0668589 0.164542 0.0087344 -0.0419571 0.113042 -0.0558596 -0.0127845 0.147758 -0.0672763 0.030972 0.118617
          0 0 0.141248 -0.0188827 0.0401144 0.111041 -0.0543824 -0.181498 0.151306 -0.0402611 -0.203247 0.176366
          0.0415554 -0.219585 0.168153 -0.0280407 -0.211588 0.217282 0.00486563 -0.166847 0.177185 -0.0681591 -0.145337 0.165039
          -0.0523661 -0.166855 0.207374 -0.0781902 -0.117832 0.190478 0.0241153 -0.114515 0.193086 -0.00743367 -0.247196 0.226749
          -0.0122191 -0.222278 0.263743 0.0443236 -0.182618 0.226459 -0.0366121 -0.179716 0.263998 -0.0125051 -0.100701 0.248382
          -0.0722479 -0.121571 0.238101 -0.0556851 -0.147376 0.259914 -0.203321 -0.110955 0.184788 -0.182565 -0.106069 0.152316
          -0.175403 -0.0442476 0.189431 -0.10662 -0.11422 0.168351 -0.154729 -0.111471 0.171985 -0.12928 -0.115944 0.193848
          -0.133258 -0.0661644 0.218504 -0.203247 0.0402608 0.176365 -0.153595 0.00618409 0.169284 -0.105857 -0.022166 0.198129
          -0.210087 -0.123444 0.2438 -0.151893 -0.118908 0.21901 -0.100788 -0.119376 0.215807 -0.152387 -0.124537 0.254246
          -0.148719 -0.0344397 0.261589 -0.211589 0.0280403 0.217281 -0.222278 0.0122187 0.263743 -0.0800976 -0.0689009 0.170099
          -0.0994668 0.0240439 0.156016 -0.0351999 -0.00660881 0.204426 0.0152353 -0.0366229 0.178673 -0.057338 -0.0548716 0.248758