<?xml version="1.0"?>
<VTKFile type="UnstructuredGrid" version="0.1" byte_order="LittleEndian">
  <UnstructuredGrid>
    <Piece NumberOfCells="960" NumberOfPoints="900">
      <PointData Scalars="discrete">
        <DataArray type="Float32" Name="discrete" NumberOfComponents="1" format="ascii">
          0.173648 0.00523613 0.321747 -0.163176 0.153335 0.469846 -0.331588 -0.0150768 0.301434 0.617945 -0.5 -0.183489
          0.133022 0.449533 0.766044 0.173648 -0.0919727 0.00523613 -0.357594 -0.260385 -0.163176 -0.623215 -0.526006 -0.428797
          -0.331588 -0.888835 -0.791627 -0.694418 -0.597209 -0.5 -0.888835 -0.791627 -0.791627 -0.694418 -0.694418 -0.694418
          -0.597209 -0.597209 -0.597209 -0.597209 -0.5 -0.5 -0.5 -0.5 -0.5 -0.5 -0.5 -0.597209
          -0.5 -0.597209 -0.694418 -0.5 -0.597209 -0.694418 -0.791627 -0.5 -0.597209 -0.694418 -0.791627 -0.888835
          0.766044 0.449533 0.617945 0.133022 0.301434 0.469846 -0.183489 -0.0150768 0.153335 0.321747 -0.5 -0.331588
          -0.163176 0.00523613 0.173648 -0.5 -0.5 -0.331588 -0.5 -0.331588 -0.163176 -0.5 -0.331588 -0.163176
          0.00523613 -0.5 -0.331588 -0.163176 0.00523613 0.173648 -0.5 -0.597209 -0.331588 -0.694418 -0.428797 -0.163176
          -0.791627 -0.526006 -0.260385 0.00523613 -0.888835 -0.623215 -0.357594 -0.0919727 0.173648 -0.5 -0.597209 -0.5
          -0.694418 -0.597209 -0.5 -0.791627 -0.694418 -0.597209 -0.5 -0.888835 -0.791627 -0.694418 -0.597209 -0.5
          0.973045 0.604784 0.773196 0.236522 0.404934 0.573346 -0.131739 0.0366733 0.205085 0.373497 -0.5 -0.331588
          -0.163176 0.00523613 0.173648 0.973045 0.968677 0.604784 0.964309 0.600416 0.236522 0.959941 0.596048 0.232154
          -0.131739 0.955573 0.59168 0.227786 -0.136107 -0.5 0.955573 0.59168 0.59168 0.227786 0.227786 0.227786
          -0.136107 -0.136107 -0.136107 -0.136107 -0.5 -0.5 -0.5 -0.5 -0.5 -0.5 -0.5 -0.136107
          -0.5 -0.136107 0.227786 -0.5 -0.136107 0.227786 0.59168 -0.5 -0.136107 0.227786 0.59168 0.955573
          0.173648 0.00523613 0.373497 -0.163176 0.205085 0.573346 -0.331588 0.0366733 0.404934 0.773196 -0.5 -0.131739
          0.236522 0.604784 0.973045 0.173648 0.00523613 0.00523613 -0.163176 -0.163176 -0.163176 -0.331588 -0.331588 -0.331588
          -0.331588 -0.5 -0.5 -0.5 -0.5 -0.5 -0.5 -0.136107 -0.131739 0.227786 0.232154 0.236522
          0.59168 0.596048 0.600416 0.604784 0.955573 0.959941 0.964309 0.968677 0.973045 0.110838 -0.0418714 0.32639
          -0.194581 0.17368 0.541942 -0.34729 0.0209708 0.389232 0.757493 -0.5 -0.131739 0.236522 0.604784 0.973045
          0.973045 0.604784 0.757493 0.236522 0.389232 0.541942 -0.131739 0.0209708 0.17368 0.32639 -0.5 -0.34729
          -0.194581 -0.0418714 0.110838 0.973045 0.604784 0.604784 0.236522 0.236522 0.236522 -0.131739 -0.131739 -0.131739
          -0.131739 -0.5 -0.5 -0.5 -0.5 -0.5 -0.5 -0.5 -0.34729 -0.5 -0.34729 -0.194581
          -0.5 -0.34729 -0.194581 -0.0418714 -0.5 -0.34729 -0.194581 -0.0418714 0.110838 0.110838 -0.0418714 -0.0418714
          -0.194581 -0.194581 -0.194581 -0.34729 -0.34729 -0.34729 -0.34729 -0.5 -0.5 -0.5 -0.5 -0.5
          0.173648 0.00523613 0.00523613 -0.163176 -0.163176 -0.163176 -0.331588 -0.331588 -0.331588 -0.331588 -0.5 -0.5
          -0.5 -0.5 -0.5 -0.5 -0.5 -0.331588 -0.5 -0.331588 -0.163176 -0.5 -0.331588 -0.163176
          0.00523613 -0.5 -0.331588 -0.163176 0.00523613 0.173648 0.973045 0.604784 0.773196 0.236522 0.404934 0.573346
          -0.131739 0.0366733 0.205085 0.373497 -0.5 -0.331588 -0.163176 0.00523613 0.173648 -0.5 -0.5 -0.131739
          -0.5 -0.131739 0.236522 -0.5 -0.131739 0.236522 0.604784 -0.5 -0.131739 0.236522 0.604784 0.973045
          0.110838 -0.0418714 0.32639 -0.194581 0.17368 0.541942 -0.34729 0.0209708 0.389232 0.757493 -0.5 -0.131739
          0.236522 0.604784 0.973045 -0.5 -0.5 -0.34729 -0.5 -0.34729 -0.194581 -0.5 -0.34729 -0.194581
          -0.0418714 -0.5 -0.34729 -0.194581 -0.0418714 0.110838 0.110838 -0.0418714 -0.0418714 -0.194581 -0.194581 -0.194581
          -0.34729 -0.34729 -0.34729 -0.34729 -0.5 -0.5 -0.5 -0.5 -0.5 0.973045 0.604784 0.757493
          0.236522 0.389232 0.541942 -0.131739 0.0209708 0.17368 0.32639 -0.5 -0.34729 -0.194581 -0.0418714 0.110838
          0.973045 0.968677 0.604784 0.964309 0.600416 0.236522 0.959941 0.596048 0.232154 -0.131739 0.955573 0.59168
          0.227786 -0.136107 -0.5 -0.5 -0.136107 -0.131739 0.227786 0.232154 0.236522 0.59168 0.596048 0.600416
          0.604784 0.955573 0.959941 0.964309 0.968677 0.973045 0.173648 0.00523613 0.373497 -0.163176 0.205085 0.573346
          -0.331588 0.0366733 0.404934 0.773196 -0.5 -0.131739 0.236522 0.604784 0.973045 0.955573 0.59168 0.59168
          0.227786 0.227786 0.227786 -0.136107 -0.136107 -0.136107 -0.136107 -0.5 -0.5 -0.5 -0.5 -0.5
          -0.5 -0.5 -0.136107 -0.5 -0.136107 0.227786 -0.5 -0.136107 0.227786 0.59168 -0.5 -0.136107
          0.227786 0.59168 0.955573 0.173648 -0.0919727 0.00523613 -0.357594 -0.260385 -0.163176 -0.623215 -0.526006 -0.428797
          -0.331588 -0.888835 -0.791627 -0.694418 -0.597209 -0.5 -0.5 -0.597209 -0.5 -0.694418 -0.597209 -0.5
          -0.791627 -0.694418 -0.597209 -0.5 -0.888835 -0.791627 -0.694418 -0.597209 -0.5 0.173648 0.00523613 0.321747
          -0.163176 0.153335 0.469846 -0.331588 -0.0150768 0.301434 0.617945 -0.5 -0.183489 0.133022 0.449533 0.766044
          -0.5 -0.597209 -0.331588 -0.694418 -0.428797 -0.163176 -0.791627 -0.526006 -0.260385 0.00523613 -0.888835 -0.623215
          -0.357594 -0.0919727 0.173648 0.766044 0.449533 0.617945 0.133022 0.301434 0.469846 -0.183489 -0.0150768 0.153335
          0.321747 -0.5 -0.331588 -0.163176 0.00523613 0.173648 -0.888835 -0.791627 -0.791627 -0.694418 -0.694418 -0.694418
          -0.597209 -0.597209 -0.597209 -0.597209 -0.5 -0.5 -0.5 -0.5 -0.5 -0.5 -0.5 -0.597209
          -0.5 -0.597209 -0.694418 -0.5 -0.597209 -0.694418 -0.791627 -0.5 -0.597209 -0.694418 -0.791627 -0.888835
          0.110838 -0.0418714 -0.0418714 -0.194581 -0.194581 -0.194581 -0.34729 -0.34729 -0.34729 -0.34729 -0.5 -0.5
          -0.5 -0.5 -0.5 -0.5 -0.5 -0.34729 -0.5 -0.34729 -0.194581 -0.5 -0.34729 -0.194581
          -0.0418714 -0.5 -0.34729 -0.194581 -0.0418714 0.110838 0.973045 0.604784 0.757493 0.236522 0.389232 0.541942
          -0.131739 0.0209708 0.17368 0.32639 -0.5 -0.34729 -0.194581 -0.0418714 0.110838 0.110838 -0.0418714 0.32639
          -0.194581 0.17368 0.541942 -0.34729 0.0209708 0.389232 0.757493 -0.5 -0.131739 0.236522 0.604784 0.973045
          -0.5 -0.136107 -0.131739 0.227786 0.232154 0.236522 0.59168 0.596048 0.600416 0.604784 0.955573 0.959941
          0.964309 0.968677 0.973045 0.973045 0.604784 0.604784 0.236522 0.236522 0.236522 -0.131739 -0.131739 -0.131739
          -0.131739 -0.5 -0.5 -0.5 -0.5 -0.5 0.173648 0.00523613 0.373497 -0.163176 0.205085 0.573346
          -0.331588 0.0366733 0.404934 0.773196 -0.5 -0.131739 0.236522 0.604784 0.973045 -0.5 -0.5 -0.136107
          -0.5 -0.136107 0.227786 -0.5 -0.136107 0.227786 0.59168 -0.5 -0.136107 0.227786 0.59168 0.955573
          0.955573 0.59168 0.59168 0.227786 0.227786 0.227786 -0.136107 -0.136107 -0.136107 -0.136107 -0.5 -0.5
          -0.5 -0.5 -0.5 0.973045 0.968677 0.604784 0.964309 0.600416 0.236522 0.959941 0.596048 0.232154
          -0.131739 0.955573 0.59168 0.227786 -0.136107 -0.5 -0.5 -0.597209 -0.5 -0.694418 -0.597209 -0.5
          -0.791627 -0.694418 -0.597209 -0.5 -0.888835 -0.791627 -0.694418 -0.597209 -0.5 0.973045 0.604784 0.773196
          0.236522 0.404934 0.573346 -0.131739 0.0366733 0.205085 0.373497 -0.5 -0.331588 -0.163176 0.00523613 0.173648
          -0.5 -0.597209 -0.331588 -0.694418 -0.428797 -0.163176 -0.791627 -0.526006 -0.260385 0.00523613 -0.888835 -0.623215
          -0.357594 -0.0919727 0.173648 0.173648 0.00523613 0.00523613 -0.163176 -0.163176 -0.163176 -0.331588 -0.331588 -0.331588
          -0.331588 -0.5 -0.5 -0.5 -0.5 -0.5 -0.5 -0.5 -0.331588 -0.5 -0.331588 -0.163176
          -0.5 -0.331588 -0.163176 0.00523613 -0.5 -0.331588 -0.163176 0.00523613 0.173648 -0.5 -0.5 -0.597209
          -0.5 -0.597209 -0.694418 -0.5 -0.597209 -0.694418 -0.791627 -0.5 -0.597209 -0.694418 -0.791627 -0.888835
          -0.888835 -0.791627 -0.791627 -0.694418 -0.694418 -0.694418 -0.597209 -0.597209 -0.597209 -0.597209 -0.5 -0.5
          -0.5 -0.5 -0.5 0.173648 -0.0919727 0.00523613 -0.357594 -0.260385 -0.163176 -0.623215 -0.526006 -0.428797
          -0.331588 -0.888835 -0.791627 -0.694418 -0.597209 -0.5 0.766044 0.449533 0.617945 0.133022 0.301434 0.469846
          -0.183489 -0.0150768 0.153335 0.321747 -0.5 -0.331588 -0.163176 0.00523613 0.173648 0.173648 0.00523613 0.321747
          -0.163176 0.153335 0.469846 -0.331588 -0.0150768 0.301434 0.617945 -0.5 -0.183489 0.133022 0.449533 0.766044
        </DataArray>
        <DataArray type="Float32" Name="error" NumberOfComponents="1" format="ascii">
          0 0.9433 0.368936 0.989415 0.338061 1.37831 0.505236 0.822315 1.23451 1.02586 0 0.809749
          0.633022 0.213774 0 0 0.193229 0.9433 0.235356 1.13272 0.989415 0.133159 1.19514 1.3764
          0.505236 0 1.036 1.6913 1.08549 0 0 0.149488 1.036 0.600577 0.275241 1.6913
          1.59196 0.380432 1.3995 1.08549 0 1.33227e-15 0.673648 1.32624 0 0 0 1.34999
          0 1.50325 1.43567 0 1.58389 1.04506 0.204368 0 1.59196 0.600577 0.149488 0
          0 0.213774 1.02586 0.633022 1.23451 1.37831 0.809749 0.822315 0.338061 0.368936 0 0.505236
          0.989415 0.9433 0 0 1.32624 0.505236 0.673648 1.32847 0.989415 1.33227e-15 0.0875886 0.832307
          0.9433 0 0.237747 0.72566 0.127474 0 0 0.205761 0.637489 0.27466 0.548845 0.72566
          0.200969 0.271803 0.298172 0.424413 0 0.133159 0.235356 0.193229 0 0 1.34999 1.15062
          1.43567 1.48061 1.47304 0.204368 0.387923 0.614098 0.850638 0 0.200969 0.27466 0.205761 0
          0 0.136464 0.532602 0.114115 0.711429 1.37632 0.0378978 0.775937 1.20319 1.21966 0 0.637489
          0.72566 0.424413 0 0 0.0113234 0.136464 0.0304403 0.19952 0.114115 0.0380882 0.287349 0.251212
          0.0378978 0 0.373419 0.426591 0.236921 0 0 0.226836 0.373419 0.305418 0.771779 0.426591
          0.208572 1.05626 0.971704 0.236921 0 1.15062 1.47304 0.850638 0 0 0 0.0249912
          0 0.0531074 0.0329335 0 0.13112 0.174662 0.0859739 0 0.208572 0.305418 0.226836 0
          0 0.894072 1.21966 0.336824 0.944349 1.37632 1.30463 0.617704 0.0542969 0.532602 0 0.664943
          0.71905 0.389965 0 0 0.127474 0.894072 0.72566 0.805901 0.336824 0.237747 0.682226 1.07284
          1.30463 0 0 0 0 0 0 0.0249912 0.242577 0.0329335 0.269527 0.414096
          0.0859739 0.242209 0.319734 0.350789 0 0.0380882 0.0304403 0.0113234 0 0 0.114337 0.109877
          0.150629 0.228768 0.210842 0.108502 0.276063 0.339527 0.207582 0 0.242577 0.414096 0.350789 0
          0 0.350789 0.207582 0.414096 0.339527 0.210842 0.242577 0.276063 0.228768 0.109877 0 0.108502
          0.150629 0.114337 0 0 0.389965 0.350789 0.71905 0.601735 0.414096 0.664943 0.534187 0.392459
          0.242577 0 0 0 0 0 0 0 0.116946 0 0.0435967 0.158856
          0 0.0317311 0.00544479 0.119227 0 0.108502 0.150629 0.114337 0 0 0.114337 0.119227
          0.150629 0.00544479 0.158856 0.108502 0.0317311 0.0435967 0.116946 0 0 0 0 0
          0 0.127474 0.9433 0.72566 0.832307 0.989415 0.237747 0.0875886 1.32847 0.505236 0 1.33227e-15
          0.673648 1.32624 0 0 0 1.30463 0 1.07284 0.336824 0 0.682226 0.805901
          0.894072 0 0.237747 0.72566 0.127474 0 0 0.389965 0.532602 0.71905 0.0542969 1.37632
          0.664943 0.617704 0.944349 1.21966 0 1.30463 0.336824 0.894072 0 0 0 0.242577
          0 0.392459 0.414096 0 0.534187 0.601735 0.350789 0 0.664943 0.71905 0.389965 0
          0 0.114337 0.109877 0.150629 0.228768 0.210842 0.108502 0.276063 0.339527 0.207582 0 0.242577
          0.414096 0.350789 0 0 0 0.116946 0 0.0435967 0.158856 0 0.0317311 0.00544479
          0.119227 0 0.108502 0.150629 0.114337 0 0 0.114337 0.119227 0.150629 0.00544479 0.158856
          0.108502 0.0317311 0.0435967 0.116946 0 0 0 0 0 0 0.350789 0.207582
          0.414096 0.339527 0.210842 0.242577 0.276063 0.228768 0.109877 0 0.108502 0.150629 0.114337 0
          0 0.0113234 0.350789 0.0304403 0.319734 0.414096 0.0380882 0.242209 0.269527 0.242577 0 0.0859739
          0.0329335 0.0249912 0 0 0.236921 0.0378978 0.426591 0.251212 0.114115 0.373419 0.287349 0.19952
          0.136464 0 0.0380882 0.0304403 0.0113234 0 0 0.424413 1.21966 0.72566 1.20319 1.37632
          0.637489 0.775937 0.711429 0.532602 0 0.0378978 0.114115 0.136464 0 0 0.226836 0.0859739
          0.305418 0.174662 0.0329335 0.208572 0.13112 0.0531074 0.0249912 0 0 0 0 0
          0 0.850638 0.236921 1.47304 0.971704 0.426591 1.15062 1.05626 0.771779 0.373419 0 0.208572
          0.305418 0.226836 0 0 0.193229 0.424413 0.235356 0.298172 0.72566 0.133159 0.271803 0.548845
          0.637489 0 0.200969 0.27466 0.205761 0 0 0.205761 0.850638 0.27466 0.614098 1.47304
          0.200969 0.387923 1.48061 1.15062 0 0.204368 1.43567 1.34999 0 0 0.9433 0.368936
          0.989415 0.338061 1.37831 0.505236 0.822315 1.23451 1.02586 0 0.809749 0.633022 0.213774 0
          0 1.08549 0.505236 1.6913 1.3764 0.989415 1.036 1.19514 1.13272 0.9433 0 0.133159
          0.235356 0.193229 0 0 0.213774 1.02586 0.633022 1.23451 1.37831 0.809749 0.822315 0.338061
          0.368936 0 0.505236 0.989415 0.9433 0 0 0.149488 0.204368 0.600577 1.04506 1.43567
          1.59196 1.58389 1.50325 1.34999 0 0 0 0 0 0 1.32624 1.08549
          0.673648 1.3995 1.6913 1.33227e-15 0.380432 0.275241 1.036 0 1.59196 0.600577 0.149488 0
          0 0.114337 0.119227 0.150629 0.00544479 0.158856 0.108502 0.0317311 0.0435967 0.116946 0 0
          0 0 0 0 0 0.116946 0 0.0435967 0.158856 0 0.0317311 0.00544479
          0.119227 0 0.108502 0.150629 0.114337 0 0 0.350789 0.207582 0.414096 0.339527 0.210842
          0.242577 0.276063 0.228768 0.109877 0 0.108502 0.150629 0.114337 0 0 0.114337 0.109877
          0.150629 0.228768 0.210842 0.108502 0.276063 0.339527 0.207582 0 0.242577 0.414096 0.350789 0
          0 0.0249912 0.242577 0.0329335 0.269527 0.414096 0.0859739 0.242209 0.319734 0.350789 0 0.0380882
          0.0304403 0.0113234 0 0 0.389965 0.350789 0.71905 0.601735 0.414096 0.664943 0.534187 0.392459
          0.242577 0 0 0 0 0 0 0.894072 1.21966 0.336824 0.944349 1.37632
          1.30463 0.617704 0.0542969 0.532602 0 0.664943 0.71905 0.389965 0 0 0 0.0249912
          0 0.0531074 0.0329335 0 0.13112 0.174662 0.0859739 0 0.208572 0.305418 0.226836 0
          0 0.226836 0.373419 0.305418 0.771779 0.426591 0.208572 1.05626 0.971704 0.236921 0 1.15062
          1.47304 0.850638 0 0 0.0113234 0.136464 0.0304403 0.19952 0.114115 0.0380882 0.287349 0.251212
          0.0378978 0 0.373419 0.426591 0.236921 0 0 1.34999 1.15062 1.43567 1.48061 1.47304
          0.204368 0.387923 0.614098 0.850638 0 0.200969 0.27466 0.205761 0 0 0.136464 0.532602
          0.114115 0.711429 1.37632 0.0378978 0.775937 1.20319 1.21966 0 0.637489 0.72566 0.424413 0
          0 0.205761 0.637489 0.27466 0.548845 0.72566 0.200969 0.271803 0.298172 0.424413 0 0.133159
          0.235356 0.193229 0 0 0.127474 0.894072 0.72566 0.805901 0.336824 0.237747 0.682226 1.07284
          1.30463 0 0 0 0 0 0 1.32624 0.505236 0.673648 1.32847 0.989415
          1.33227e-15 0.0875886 0.832307 0.9433 0 0.237747 0.72566 0.127474 0 0 0 1.34999
          0 1.50325 1.43567 0 1.58389 1.04506 0.204368 0 1.59196 0.600577 0.149488 0
          0 0.149488 1.036 0.600577 0.275241 1.6913 1.59196 0.380432 1.3995 1.08549 0 1.33227e-15
          0.673648 1.32624 0 0 0.193229 0.9433 0.235356 1.13272 0.989415 0.133159 1.19514 1.3764
          0.505236 0 1.036 1.6913 1.08549 0 0 0.213774 1.02586 0.633022 1.23451 1.37831
          0.809749 0.822315 0.338061 0.368936 0 0.505236 0.989415 0.9433 0 0 0.9433 0.368936
          0.989415 0.338061 1.37831 0.505236 0.822315 1.23451 1.02586 0 0.809749 0.633022 0.213774 0
        </DataArray>
        <DataArray type="Float32" Name="exact" NumberOfComponents="1" format="ascii">
          0.173648 0.948536 0.690683 0.826239 -0.184726 -0.908465 0.173648 -0.837391 -0.933072 -0.407917 -0.5 -0.993238
          -0.5 0.235759 0.766044 0.173648 0.101256 0.948536 -0.122238 0.87234 0.826239 -0.490056 0.669131 0.9476
          0.173648 -0.888835 0.244378 0.996878 0.488278 -0.5 -0.888835 -0.941114 0.244378 -0.093841 -0.419177 0.996878
          0.994749 -0.977641 0.802294 0.488278 -0.5 -0.5 0.173648 0.826239 -0.5 -0.5 -0.5 0.752784
          -0.5 0.906042 0.741248 -0.5 0.986681 0.350638 -0.587259 -0.5 0.994749 -0.093841 -0.941114 -0.888835
          0.766044 0.235759 -0.407917 -0.5 -0.933072 -0.908465 -0.993238 -0.837391 -0.184726 0.690683 -0.5 0.173648
          0.826239 0.948536 0.173648 -0.5 0.826239 0.173648 0.173648 0.996878 0.826239 -0.5 -0.419177 0.669131
          0.948536 -0.5 -0.093841 -0.888835 -0.122238 0.173648 -0.5 -0.80297 -0.969077 -0.969077 -0.977641 -0.888835
          -0.992596 -0.797809 -0.558557 -0.419177 -0.888835 -0.490056 -0.122238 0.101256 0.173648 -0.5 0.752784 0.650618
          0.741248 0.883396 0.973045 -0.587259 -0.306495 0.0168895 0.350638 -0.888835 -0.992596 -0.969077 -0.80297 -0.5
          0.973045 0.741248 0.240593 0.350638 -0.306495 -0.80297 -0.093841 -0.739263 -0.998103 -0.846162 -0.5 -0.969077
          -0.888835 -0.419177 0.173648 0.973045 0.98 0.741248 0.994749 0.799935 0.350638 0.998029 0.883396 0.483366
          -0.093841 0.955573 0.965099 0.654378 0.100814 -0.5 0.955573 0.818516 0.965099 0.533204 0.999565 0.654378
          0.0724653 0.920149 0.835597 0.100814 -0.5 0.650618 0.973045 0.350638 -0.5 -0.5 -0.5 -0.161098
          -0.5 -0.0829994 0.26072 -0.5 -0.00498663 0.402449 0.677653 -0.5 0.0724653 0.533204 0.818516 0.955573
          0.173648 -0.888835 -0.846162 -0.5 -0.739263 -0.80297 0.973045 0.654378 0.350638 0.240593 -0.5 0.533204
          0.955573 0.994749 0.973045 0.173648 -0.122238 -0.888835 -0.888835 -0.969077 -0.5 -0.093841 0.350638 0.741248
          0.973045 -0.5 -0.5 -0.5 -0.5 -0.5 -0.5 -0.161098 0.110838 0.26072 0.501682 0.650618
          0.677653 0.838257 0.920149 0.955573 0.955573 0.998029 0.994749 0.98 0.973045 0.110838 0.0724653 0.436267
          -0.0439521 0.402449 0.752784 -0.238788 0.297034 0.728759 0.965075 -0.5 0.110838 0.650618 0.955573 0.973045
          0.973045 0.955573 0.965075 0.650618 0.728759 0.752784 0.110838 0.297034 0.402449 0.436267 -0.5 -0.238788
          -0.0439521 0.0724653 0.110838 0.973045 0.994749 0.955573 0.955573 0.838257 0.650618 0.533204 0.402449 0.26072
          0.110838 -0.5 -0.5 -0.5 -0.5 -0.5 -0.5 -0.5 -0.464236 -0.5 -0.390887 -0.353437
          -0.5 -0.315559 -0.200026 -0.161098 -0.5 -0.238788 -0.0439521 0.0724653 0.110838 0.110838 0.0724653 -0.161098
          -0.0439521 -0.200026 -0.353437 -0.238788 -0.315559 -0.390887 -0.464236 -0.5 -0.5 -0.5 -0.5 -0.5
          0.173648 -0.122238 0.948536 -0.888835 0.669131 0.826239 -0.093841 -0.419177 0.996878 0.173648 -0.5 -0.5
          0.173648 0.826239 -0.5 -0.5 -0.5 0.973045 -0.5 0.741248 -0.5 -0.5 0.350638 -0.969077
          -0.888835 -0.5 -0.093841 -0.888835 -0.122238 0.173648 0.973045 0.994749 0.240593 0.955573 0.350638 -0.80297
          0.533204 0.654378 -0.739263 -0.846162 -0.5 0.973045 -0.5 -0.888835 0.173648 -0.5 -0.5 0.110838
          -0.5 0.26072 0.650618 -0.5 0.402449 0.838257 0.955573 -0.5 0.533204 0.955573 0.994749 0.973045
          0.110838 0.0724653 0.436267 -0.0439521 0.402449 0.752784 -0.238788 0.297034 0.728759 0.965075 -0.5 0.110838
          0.650618 0.955573 0.973045 -0.5 -0.5 -0.464236 -0.5 -0.390887 -0.353437 -0.5 -0.315559 -0.200026
          -0.161098 -0.5 -0.238788 -0.0439521 0.0724653 0.110838 0.110838 0.0724653 -0.161098 -0.0439521 -0.200026 -0.353437
          -0.238788 -0.315559 -0.390887 -0.464236 -0.5 -0.5 -0.5 -0.5 -0.5 0.973045 0.955573 0.965075
          0.650618 0.728759 0.752784 0.110838 0.297034 0.402449 0.436267 -0.5 -0.238788 -0.0439521 0.0724653 0.110838
          0.973045 0.98 0.955573 0.994749 0.920149 0.650618 0.998029 0.838257 0.501682 0.110838 0.955573 0.677653
          0.26072 -0.161098 -0.5 -0.5 0.100814 -0.093841 0.654378 0.483366 0.350638 0.965099 0.883396 0.799935
          0.741248 0.955573 0.998029 0.994749 0.98 0.973045 0.173648 -0.419177 -0.846162 -0.888835 -0.998103 -0.80297
          -0.969077 -0.739263 -0.306495 0.240593 -0.5 -0.093841 0.350638 0.741248 0.973045 0.955573 0.818516 0.677653
          0.533204 0.402449 0.26072 0.0724653 -0.00498663 -0.0829994 -0.161098 -0.5 -0.5 -0.5 -0.5 -0.5
          -0.5 0.350638 0.100814 0.973045 0.835597 0.654378 0.650618 0.920149 0.999565 0.965099 -0.5 0.0724653
          0.533204 0.818516 0.955573 0.173648 0.101256 -0.419177 -0.122238 -0.558557 -0.888835 -0.490056 -0.797809 -0.977641
          -0.969077 -0.888835 -0.992596 -0.969077 -0.80297 -0.5 -0.5 -0.80297 0.350638 -0.969077 0.0168895 0.973045
          -0.992596 -0.306495 0.883396 0.650618 -0.888835 -0.587259 0.741248 0.752784 -0.5 0.173648 0.948536 0.690683
          0.826239 -0.184726 -0.908465 0.173648 -0.837391 -0.933072 -0.407917 -0.5 -0.993238 -0.5 0.235759 0.766044
          -0.5 0.488278 0.173648 0.996878 0.9476 0.826239 0.244378 0.669131 0.87234 0.948536 -0.888835 -0.490056
          -0.122238 0.101256 0.173648 0.766044 0.235759 -0.407917 -0.5 -0.933072 -0.908465 -0.993238 -0.837391 -0.184726
          0.690683 -0.5 0.173648 0.826239 0.948536 0.173648 -0.888835 -0.941114 -0.587259 -0.093841 0.350638 0.741248
          0.994749 0.986681 0.906042 0.752784 -0.5 -0.5 -0.5 -0.5 -0.5 -0.5 0.826239 0.488278
          0.173648 0.802294 0.996878 -0.5 -0.977641 -0.419177 0.244378 -0.5 0.994749 -0.093841 -0.941114 -0.888835
          0.110838 0.0724653 -0.161098 -0.0439521 -0.200026 -0.353437 -0.238788 -0.315559 -0.390887 -0.464236 -0.5 -0.5
          -0.5 -0.5 -0.5 -0.5 -0.5 -0.464236 -0.5 -0.390887 -0.353437 -0.5 -0.315559 -0.200026
          -0.161098 -0.5 -0.238788 -0.0439521 0.0724653 0.110838 0.973045 0.955573 0.965075 0.650618 0.728759 0.752784
          0.110838 0.297034 0.402449 0.436267 -0.5 -0.238788 -0.0439521 0.0724653 0.110838 0.110838 0.0724653 0.436267
          -0.0439521 0.402449 0.752784 -0.238788 0.297034 0.728759 0.965075 -0.5 0.110838 0.650618 0.955573 0.973045
          -0.5 -0.161098 0.110838 0.26072 0.501682 0.650618 0.677653 0.838257 0.920149 0.955573 0.955573 0.998029
          0.994749 0.98 0.973045 0.973045 0.994749 0.955573 0.955573 0.838257 0.650618 0.533204 0.402449 0.26072
          0.110838 -0.5 -0.5 -0.5 -0.5 -0.5 0.173648 -0.888835 -0.846162 -0.5 -0.739263 -0.80297
          0.973045 0.654378 0.350638 0.240593 -0.5 0.533204 0.955573 0.994749 0.973045 -0.5 -0.5 -0.161098
          -0.5 -0.0829994 0.26072 -0.5 -0.00498663 0.402449 0.677653 -0.5 0.0724653 0.533204 0.818516 0.955573
          0.955573 0.818516 0.965099 0.533204 0.999565 0.654378 0.0724653 0.920149 0.835597 0.100814 -0.5 0.650618
          0.973045 0.350638 -0.5 0.973045 0.98 0.741248 0.994749 0.799935 0.350638 0.998029 0.883396 0.483366
          -0.093841 0.955573 0.965099 0.654378 0.100814 -0.5 -0.5 0.752784 0.650618 0.741248 0.883396 0.973045
          -0.587259 -0.306495 0.0168895 0.350638 -0.888835 -0.992596 -0.969077 -0.80297 -0.5 0.973045 0.741248 0.240593
          0.350638 -0.306495 -0.80297 -0.093841 -0.739263 -0.998103 -0.846162 -0.5 -0.969077 -0.888835 -0.419177 0.173648
          -0.5 -0.80297 -0.969077 -0.969077 -0.977641 -0.888835 -0.992596 -0.797809 -0.558557 -0.419177 -0.888835 -0.490056
          -0.122238 0.101256 0.173648 0.173648 -0.122238 -0.888835 -0.888835 -0.969077 -0.5 -0.093841 0.350638 0.741248
          0.973045 -0.5 -0.5 -0.5 -0.5 -0.5 -0.5 0.826239 0.173648 0.173648 0.996878 0.826239
          -0.5 -0.419177 0.669131 0.948536 -0.5 -0.093841 -0.888835 -0.122238 0.173648 -0.5 -0.5 0.752784
          -0.5 0.906042 0.741248 -0.5 0.986681 0.350638 -0.587259 -0.5 0.994749 -0.093841 -0.941114 -0.888835
          -0.888835 -0.941114 0.244378 -0.093841 -0.419177 0.996878 0.994749 -0.977641 0.802294 0.488278 -0.5 -0.5
          0.173648 0.826239 -0.5 0.173648 0.101256 0.948536 -0.122238 0.87234 0.826239 -0.490056 0.669131 0.9476
          0.173648 -0.888835 0.244378 0.996878 0.488278 -0.5 0.766044 0.235759 -0.407917 -0.5 -0.933072 -0.908465
          -0.993238 -0.837391 -0.184726 0.690683 -0.5 0.173648 0.826239 0.948536 0.173648 0.173648 0.948536 0.690683
          0.826239 -0.184726 -0.908465 0.173648 -0.837391 -0.933072 -0.407917 -0.5 -0.993238 -0.5 0.235759 0.766044
        </DataArray>
      </PointData>
      <Points>
        <DataArray type="Float32" Name="Coordinates" NumberOfComponents="3" format="ascii">
          -0.5 -0.3 0 -0.5 -0.375 0 -0.625 -0.375 0 -0.5 -0.45 0
          -0.625 -0.45 0 -0.75 -0.45 0 -0.5 -0.525 0 -0.625 -0.525 0
          -0.75 -0.525 0 -0.875 -0.525 0 -0.5 -0.6 0 -0.625 -0.6 0
          -0.75 -0.6 0 -0.875 -0.6 0 -1 -0.6 0 -0.5 -0.3 0
          -0.4375 -0.3375 0 -0.5 -0.375 0 -0.375 -0.375 0 -0.4375 -0.4125 0
          -0.5 -0.45 0 -0.3125 -0.4125 0 -0.375 -0.45 0 -0.4375 -0.4875 0
          -0.5 -0.525 0 -0.25 -0.45 0 -0.3125 -0.4875 0 -0.375 -0.525 0
          -0.4375 -0.5625 0 -0.5 -0.6 0 -0.25 -0.45 0 -0.1875 -0.4875 0
          -0.3125 -0.4875 0 -0.125 -0.525 0 -0.25 -0.525 0 -0.375 -0.525 0
          -0.0625 -0.5625 0 -0.1875 -0.5625 0 -0.3125 -0.5625 0 -0.4375 -0.5625 0
          0 -0.6 0 -0.125 -0.6 0 -0.25 -0.6 0 -0.375 -0.6 0
          -0.5 -0.6 0 0 -0.3 0 0 -0.375 0 -0.0625 -0.3375 0
          0 -0.45 0 -0.0625 -0.4125 0 -0.125 -0.375 0 0 -0.525 0
          -0.0625 -0.4875 0 -0.125 -0.45 0 -0.1875 -0.4125 0 0 -0.6 0
          -0.0625 -0.5625 0 -0.125 -0.525 0 -0.1875 -0.4875 0 -0.25 -0.45 0
          -1 -0.6 0 -1 -0.525 0 -0.875 -0.525 0 -1 -0.45 0
          -0.875 -0.45 0 -0.75 -0.45 0 -1 -0.375 0 -0.875 -0.375 0
          -0.75 -0.375 0 -0.625 -0.375 0 -1 -0.3 0 -0.875 -0.3 0
          -0.75 -0.3 0 -0.625 -0.3 0 -0.5 -0.3 0 -1 -0.3 0
          -1 -0.225 0 -0.875 -0.3 0 -1 -0.15 0 -0.875 -0.225 0
          -0.75 -0.3 0 -1 -0.075 0 -0.875 -0.15 0 -0.75 -0.225 0
          -0.625 -0.3 0 -1 0 0 -0.875 -0.075 0 -0.75 -0.15 0
          -0.625 -0.225 0 -0.5 -0.3 0 -0.25 -0.3 0 -0.25 -0.3375 0
          -0.3125 -0.3 0 -0.25 -0.375 0 -0.3125 -0.3375 0 -0.375 -0.3 0
          -0.25 -0.4125 0 -0.3125 -0.375 0 -0.375 -0.3375 0 -0.4375 -0.3 0
          -0.25 -0.45 0 -0.3125 -0.4125 0 -0.375 -0.375 0 -0.4375 -0.3375 0
          -0.5 -0.3 0 0 -0.3 0 -0.0625 -0.3375 0 -0.0625 -0.3 0
          -0.125 -0.375 0 -0.125 -0.3375 0 -0.125 -0.3 0 -0.1875 -0.4125 0
          -0.1875 -0.375 0 -0.1875 -0.3375 0 -0.1875 -0.3 0 -0.25 -0.45 0
          -0.25 -0.4125 0 -0.25 -0.375 0 -0.25 -0.3375 0 -0.25 -0.3 0
          -0.25 -0.15 0 -0.25 -0.1875 0 -0.3125 -0.1875 0 -0.25 -0.225 0
          -0.3125 -0.225 0 -0.375 -0.225 0 -0.25 -0.2625 0 -0.3125 -0.2625 0
          -0.375 -0.2625 0 -0.4375 -0.2625 0 -0.25 -0.3 0 -0.3125 -0.3 0
          -0.375 -0.3 0 -0.4375 -0.3 0 -0.5 -0.3 0 -0.25 -0.15 0
          -0.21875 -0.16875 0 -0.25 -0.1875 0 -0.1875 -0.1875 0 -0.21875 -0.20625 0
          -0.25 -0.225 0 -0.15625 -0.20625 0 -0.1875 -0.225 0 -0.21875 -0.24375 0
          -0.25 -0.2625 0 -0.125 -0.225 0 -0.15625 -0.24375 0 -0.1875 -0.2625 0
          -0.21875 -0.28125 0 -0.25 -0.3 0 -0.125 -0.225 0 -0.09375 -0.24375 0
          -0.15625 -0.24375 0 -0.0625 -0.2625 0 -0.125 -0.2625 0 -0.1875 -0.2625 0
          -0.03125 -0.28125 0 -0.09375 -0.28125 0 -0.15625 -0.28125 0 -0.21875 -0.28125 0
          0 -0.3 0 -0.0625 -0.3 0 -0.125 -0.3 0 -0.1875 -0.3 0
          -0.25 -0.3 0 0 -0.15 0 0 -0.1875 0 -0.03125 -0.16875 0
          0 -0.225 0 -0.03125 -0.20625 0 -0.0625 -0.1875 0 0 -0.2625 0
          -0.03125 -0.24375 0 -0.0625 -0.225 0 -0.09375 -0.20625 0 0 -0.3 0
          -0.03125 -0.28125 0 -0.0625 -0.2625 0 -0.09375 -0.24375 0 -0.125 -0.225 0
          -0.5 -0.3 0 -0.5 -0.225 0 -0.4375 -0.2625 0 -0.5 -0.15 0
          -0.4375 -0.1875 0 -0.375 -0.225 0 -0.5 -0.075 0 -0.4375 -0.1125 0
          -0.375 -0.15 0 -0.3125 -0.1875 0 -0.5 0 0 -0.4375 -0.0375 0
          -0.375 -0.075 0 -0.3125 -0.1125 0 -0.25 -0.15 0 -0.5 -0.3 0
          -0.625 -0.225 0 -0.5 -0.225 0 -0.75 -0.15 0 -0.625 -0.15 0
          -0.5 -0.15 0 -0.875 -0.075 0 -0.75 -0.075 0 -0.625 -0.075 0
          -0.5 -0.075 0 -1 0 0 -0.875 0 0 -0.75 0 0
          -0.625 0 0 -0.5 0 0 0 -0.15 0 -0.03125 -0.16875 0
          -0.0625 -0.15 0 -0.0625 -0.1875 0 -0.09375 -0.16875 0 -0.125 -0.15 0
          -0.09375 -0.20625 0 -0.125 -0.1875 0 -0.15625 -0.16875 0 -0.1875 -0.15 0
          -0.125 -0.225 0 -0.15625 -0.20625 0 -0.1875 -0.1875 0 -0.21875 -0.16875 0
          -0.25 -0.15 0 -0.125 -0.075 0 -0.09375 -0.09375 0 -0.15625 -0.09375 0
          -0.0625 -0.1125 0 -0.125 -0.1125 0 -0.1875 -0.1125 0 -0.03125 -0.13125 0
          -0.09375 -0.13125 0 -0.15625 -0.13125 0 -0.21875 -0.13125 0 0 -0.15 0
          -0.0625 -0.15 0 -0.125 -0.15 0 -0.1875 -0.15 0 -0.25 -0.15 0
          -0.25 -0.15 0 -0.25 -0.1125 0 -0.21875 -0.13125 0 -0.25 -0.075 0
          -0.21875 -0.09375 0 -0.1875 -0.1125 0 -0.25 -0.0375 0 -0.21875 -0.05625 0
          -0.1875 -0.075 0 -0.15625 -0.09375 0 -0.25 0 0 -0.21875 -0.01875 0
          -0.1875 -0.0375 0 -0.15625 -0.05625 0 -0.125 -0.075 0 -0.25 -0.15 0
          -0.3125 -0.1125 0 -0.25 -0.1125 0 -0.375 -0.075 0 -0.3125 -0.075 0
          -0.25 -0.075 0 -0.4375 -0.0375 0 -0.375 -0.0375 0 -0.3125 -0.0375 0
          -0.25 -0.0375 0 -0.5 0 0 -0.4375 0 0 -0.375 0 0
          -0.3125 0 0 -0.25 0 0 0 0 0 0 -0.0375 0
          -0.03125 -0.01875 0 0 -0.075 0 -0.03125 -0.05625 0 -0.0625 -0.0375 0
          0 -0.1125 0 -0.03125 -0.09375 0 -0.0625 -0.075 0 -0.09375 -0.05625 0
          0 -0.15 0 -0.03125 -0.13125 0 -0.0625 -0.1125 0 -0.09375 -0.09375 0
          -0.125 -0.075 0 -0.125 -0.075 0 -0.15625 -0.05625 0 -0.09375 -0.05625 0