<?xml version="1.0"?>
<VTKFile type="UnstructuredGrid" version="0.1" byte_order="LittleEndian">
  <UnstructuredGrid>
    <Piece NumberOfCells="28800" NumberOfPoints="14641">
      <PointData Scalars="u">
        <DataArray type="Float32" Name="u" NumberOfComponents="1" format="ascii">
          4.66378e-07 0 0 0 1.83429e-06 0 4.0575e-06 0 1.83429e-06 4.0575e-06 7.21436e-06 1.59584e-05
          1.59584e-05 0 7.09055e-06 0 1.08888e-05 0 2.78875e-05 3.53003e-05 6.16879e-05 4.28262e-05 9.47327e-05 0
          0 7.09055e-06 2.78875e-05 6.16879e-05 1.08888e-05 0 4.28262e-05 9.47327e-05 0.000107801 0.000165547 0.000165547 0.000254227
          1.54084e-05 0 2.06062e-05 0 2.64399e-05 6.06019e-05 0.000134053 8.10451e-05 0.00010399 0.000179274 0 3.28681e-05
          0 3.98501e-05 0 0.000129272 0.000230028 0.000285953 0.000156733 0.000346697 0.00023426 0.000313285 0.000401978 0.000359748
          0.000481104 0.000617308 0.000499709 0.000605859 0.000767391 0.000930403 1.54084e-05 0 6.06019e-05 0.000134053 0 2.06062e-05
          2.64399e-05 8.10451e-05 0.000179274 0.00010399 0.00023426 0.000359748 0.000313285 0.000230028 0.000401978 0.000481104 0.000617308 0
          0 3.28681e-05 0.000129272 0.000285953 3.98501e-05 0 0.000156733 0.000346697 0.000499709 0.000767391 0.000605859 0.000930403
          0.000509066 0.000680793 0.000873531 0.000680793 0.000873531 0.000910449 0.0011682 0.0011682 0.00108591 0.00131658 0.00145222 0.00149893
          0.00186336 0.00176071 0.00225918 0.00108591 0.00145222 0.00186336 0.00131658 0.00176071 0.00225918 0.00231639 0.00280844 0.00280844
          0.00340502 4.73459e-05 0 5.53164e-05 0 6.37233e-05 0.000186214 0.00041191 0.000217562 0.000250627 0.000481254 0
          7.2529e-05 0 8.16968e-05 0 0.000285261 0.000554394 0.000631004 0.000321318 0.000710764 0.000719821 0.000841 0.000968813
          0.00110541 0.0012915 0.00148778 0.00110269 0.00124207 0.00169337 0.00190742 9.11907e-05 0 0.000100976 0 0.000111017
          0.000358658 0.000793361 0.000397142 0.000436636 0.000878489 0 0.000121281 0 0.000131736 0 0.000477006 0.00096585
          0.00105515 0.000518124 0.0011461 0.00138641 0.00153518 0.00168784 0.00212908 0.00235753 0.00259197 0.00184389 0.00200284 0.00283162
          0.0030757 0.00156423 0.00182756 0.00210531 0.0020919 0.00268413 0.00244406 0.0028155 0.00313599 0.00239623 0.00269912 0.00320457
          0.00361259 0.00411179 0.00360963 0.00463153 0.0033367 0.00389842 0.00449089 0.00404549 0.00472653 0.00544484 0.00511146 0.00575754
          0.00619723 0.00698055 0.00301278 0.00333605 0.0036678 0.00402909 0.00516974 0.00446141 0.00490507 0.00572445 0.00400691 0.00435231
          0.00535857 0.00629369 0.00687558 0.00582047 0.00746823 0.00642661 0.00711616 0.0078238 0.00779172 0.00862774 0.00948566 0.00854713
          0.00928386 0.0103626 0.0112558 4.73459e-05 0 0.000186214 0.00041191 0 5.53164e-05 6.37233e-05 0.000217562 0.000481254
          0.000250627 0.000719821 0.00110541 0.000841 0.000554394 0.000968813 0.0012915 0.00148778 0 0 7.2529e-05 0.000285261
          0.000631004 8.16968e-05 0 0.000321318 0.000710764 0.00110269 0.00169337 0.00124207 0.00190742 0.00156423 0.0020919 0.00268413
          0.00182756 0.00210531 0.00244406 0.00313599 0.0028155 0.0033367 0.00404549 0.00389842 0.00361259 0.00449089 0.00472653 0.00544484
          0.00239623 0.00320457 0.00411179 0.00269912 0.00360963 0.00463153 0.00511146 0.00619723 0.00575754 0.00698055 9.11907e-05 0
          0.000358658 0.000793361 0 0.000100976 0.000111017 0.000397142 0.000878489 0.000436636 0.00138641 0.00212908 0.00153518 0.00096585
          0.00168784 0.00235753 0.00259197 0 0 0.000121281 0.000477006 0.00105515 0.000131736 0 0.000518124 0.0011461
          0.00184389 0.00283162 0.00200284 0.0030757 0.00301278 0.00402909 0.00516974 0.00333605 0.0036678 0.00446141 0.00572445 0.00490507
          0.00642661 0.00779172 0.00711616 0.00629369 0.0078238 0.00862774 0.00948566 0.00400691 0.00535857 0.00687558 0.00435231 0.00582047
          0.00746823 0.00854713 0.0103626 0.00928386 0.0112558 0.00480644 0.00561557 0.00646899 0.00561557 0.00646899 0.00656091 0.00755798
          0.00755798 0.00736289 0.00829353 0.00860235 0.00870658 0.00990964 0.00968964 0.0111621 0.00736289 0.00860235 0.00990964 0.00829353
          0.00968964 0.0111621 0.0112789 0.0127044 0.0127044 0.0143101 0.00925726 0.0102505 0.0112698 0.0108156 0.0124592 0.011976
          0.0131668 0.0137959 0.0123117 0.0133728 0.014384 0.0151676 0.0165697 0.0156237 0.0179977 0.0141806 0.015702 0.0172631
          0.0159728 0.0176863 0.0194447 0.0188589 0.0204841 0.021242 0.0230725 0.00925726 0.0108156 0.0124592 0.0102505 0.0112698
          0.011976 0.0137959 0.0131668 0.0141806 0.0159728 0.015702 0.0151676 0.0172631 0.0176863 0.0194447 0.0123117 0.014384
          0.0165697 0.0133728 0.0156237 0.0179977 0.0188589 0.021242 0.0204841 0.0230725 0.0178286 0.0197412 0.0217037 0.0197412
          0.0217037 0.0218588 0.0240317 0.0240317 0.0237097 0.0257526 0.0262526 0.0264204 0.0288619 0.0285144 0.0313482 0.0237097
          0.0262526 0.0288619 0.0257526 0.0285144 0.0313482 0.0315287 0.0342444 0.0342444 0.0371937 0.000142349 0 0.000153088
          0 0.000163924 0.000559865 0.00123843 0.000602104 0.000644723 0.00133187 0 0.000174827 0 0.000185768 0
          0.000687605 0.00142614 0.001521 0.000730636 0.00161619 0.00216418 0.00232746 0.00249221 0.00332348 0.00357422 0.00382721 0.00265797
          0.00282431 0.00408177 0.00433721 0.000196719 0 0.000207653 0 0.000218542 0.000773707 0.00171146 0.000816709 0.000859539
          0.00180658 0 0.000229363 0 0.000240089 0 0.000902096 0.00190132 0.00199546 0.000944281 0.00208877 0.0029908
          0.00315702 0.00332259 0.00459288 0.00484815 0.00510239 0.00348709 0.00365016 0.00535501 0.00560543 0.00470292 0.00505773 0.00541573
          0.00628936 0.00806985 0.00676385 0.0072426 0.00867866 0.00577594 0.00613739 0.0077243 0.00929293 0.00991098 0.00820768 0.0105312
          0.0100317 0.0107885 0.0115521 0.0121625 0.01308 0.0140057 0.0123204 0.0130913 0.0149372 0.0158718 0.00649918 0.00686039
          0.00722015 0.00869149 0.0111519 0.00917454 0.00965564 0.0117717 0.00757762 0.00793196 0.0101337 0.012389 0.0130023 0.0106075
          0.0136103 0.0138629 0.0146333 0.0154006 0.0168073 0.0177412 0.0186714 0.016163 0.0169187 0.0195956 0.0205117 0.000250696
          0 0.000261162 0 0.000271463 0.000986001 0.00218106 0.00102716 0.00106768 0.00227211 0 0.000281578 0
          0.000291486 0 0.00110746 0.00236173 0.00244973 0.00114643 0.00253593 0.00381142 0.00397054 0.00412715 0.00585308 0.00609741
          0.00633791 0.00428093 0.00443156 0.00657407 0.00680539 0.000301167 0 0.000310602 0 0.000319771 0.00118451 0.00262015
          0.00122161 0.00125768 0.00270223 0 0.000328657 0 0.000337244 0 0.00129263 0.00278201 0.00285932 0.0013264
          0.00293402 0.00457875 0.00472218 0.00486158 0.00703141 0.00725166 0.00746573 0.00499668 0.00512722 0.0076732 0.00787366 0.00828239
          0.00862813 0.00896844 0.0110761 0.0142115 0.0115385 0.0119936 0.0148047 0.0093026 0.00962992 0.0124404 0.0153886 0.0159619
          0.0128781 0.0165234 0.017666 0.0184034 0.0191291 0.0214177 0.0223115 0.0231912 0.0198417 0.0205397 0.0240551 0.0249012
          0.00994973 0.0102614 0.0105643 0.0133058 0.0170721 0.0137226 0.0141276 0.0176068 0.0108579 0.0111415 0.0145202 0.0181265
          0.0186301 0.0148995 0.0191167 0.0212217 0.0218862 0.0225321 0.0257278 0.0265334 0.0273163 0.0231581 0.0237629 0.028075
          0.0288081 0.01445 0.01554 0.0166398 0.0168821 0.0194473 0.0181556 0.0194404 0.0209141 0.0177463 0.0188566 0.020733
          0.022394 0.0238829 0.0220301 0.0253769 0.0221338 0.0238031 0.0254872 0.0249305 0.0268105 0.0287072 0.0271816 0.0288818
          0.0306154 0.0325301 0.0199679 0.0210774 0.0221824 0.0233283 0.0268721 0.0246244 0.0259152 0.0283649 0.0232803 0.0243686
          0.0271977 0.0298516 0.0313286 0.0284689 0.0327926 0.0305833 0.032282 0.0339737 0.0344462 0.0363591 0.038264 0.0356544
          0.0373202 0.0401566 0.0420323 0.0278262 0.0299243 0.0320411 0.0308102 0.0338718 0.033133 0.0354764 0.0364251 0.0341706
          0.0363072 0.0378338 0.0390009 0.041592 0.040199 0.0441916 0.0370008 0.0397895 0.0426026 0.040187 0.0432153 0.04627
          0.0454324 0.0482714 0.0493426 0.0524251 0.0384455 0.04058 0.0427055 0.0425659 0.046793 0.0449287 0.0472814 0.0493896
          0.0448172 0.04691 0.0496186 0.0519752 0.0545435 0.0519349 0.0570888 0.0511121 0.0539476 0.0567708 0.0555093 0.0585877
          0.0616525 0.0595751 0.062354 0.0646967 0.0677132 0.0254447 0.0265065 0.0275515 0.0297259 0.0342403 0.0309661 0.0321867
          0.0356685 0.0285775 0.0295826 0.0333852 0.0370742 0.0384543 0.034559 0.039806 0.0389674 0.0405924 0.0421916 0.043887
          0.0457166 0.0475172 0.0437618 0.0452996 0.0492849 0.0510162 0.0305645 0.0315213 0.0324512 0.0357058 0.0411266 0.0368234
          0.0379094 0.0424134 0.0333524 0.0342231 0.0389618 0.043664 0.0448758 0.0399787 0.0460466 0.046802 0.0482659 0.0496884
          0.0527075 0.0543554 0.0559567 0.0510669 0.0523986 0.0575084 0.0590074 0.0489793 0.0510205 0.0530293 0.054225 0.0596052
          0.056484 0.0587069 0.0620872 0.0550013 0.0569326 0.0608891 0.0645295 0.0669269 0.0630261 0.0692746 0.0651012 0.0678108
          0.0704769 0.0706951 0.0736359 0.0765292 0.0730938 0.0756561 0.0793691 0.0821496 0.0588192 0.0606573 0.0624434 0.0651136
          0.0715676 0.0671473 0.0691234 0.0738016 0.064174 0.0658458 0.0710379 0.075972 0.0780748 0.0728874 0.080106 0.0781588
          0.0805968 0.0829654 0.0848651 0.0875103 0.0900799 0.08526 0.0874763 0.0925692 0.0949733 0.000142349 0 0.000559865
          0.00123843 0 0.000153088 0.000163924 0.000602104 0.00133187 0.000644723 0.00216418 0.00332348 0.00232746 0.00142614 0.00249221
          0.00357422 0.00382721 0 0 0.000174827 0.000687605 0.001521 0.000185768 0 0.000730636 0.00161619 0.00265797
          0.00408177 0.00282431 0.00433721 0.00470292 0.00628936 0.00806985 0.00505773 0.00541573 0.00676385 0.00867866 0.0072426 0.0100317
          0.0121625 0.0107885 0.00929293 0.0115521 0.01308 0.0140057 0.00577594 0.0077243 0.00991098 0.00613739 0.00820768 0.0105312
          0.0123204 0.0149372 0.0130913 0.0158718 0.000196719 0 0.000773707 0.00171146 0 0.000207653 0.000218542 0.000816709
          0.00180658 0.000859539 0.0029908 0.00459288 0.00315702 0.00190132 0.00332259 0.00484815 0.00510239 0 0 0.000229363
          0.000902096 0.00199546 0.000240089 0 0.000944281 0.00208877 0.00348709 0.00535501 0.00365016 0.00560543 0.00649918 0.00869149
          0.0111519 0.00686039 0.00722015 0.00917454 0.0117717 0.00965564 0.0138629 0.0168073 0.0146333 0.012389 0.0154006 0.0177412
          0.0186714 0.00757762 0.0101337 0.0130023 0.00793196 0.0106075 0.0136103 0.016163 0.0195956 0.0169187 0.0205117 0.01445
          0.0168821 0.0194473 0.01554 0.0166398 0.0181556 0.0209141 0.0194404 0.0221338 0.0249305 0.0238031 0.022394 0.0254872
          0.0268105 0.0287072 0.0177463 0.020733 0.0238829 0.0188566 0.0220301 0.0253769 0.0271816 0.0306154 0.0288818 0.0325301
          0.0278262 0.0308102 0.0338718 0.0299243 0.0320411 0.033133 0.0364251 0.0354764 0.0370008 0.040187 0.0397895 0.0390009
          0.0426026 0.0432153 0.04627 0.0341706 0.0378338 0.041592 0.0363072 0.040199 0.0441916 0.0454324 0.0493426 0.0482714
          0.0524251 0.0199679 0.0233283 0.0268721 0.0210774 0.0221824 0.0246244 0.0283649 0.0259152 0.0305833 0.0344462 0.032282
          0.0298516 0.0339737 0.0363591 0.038264 0.0232803 0.0271977 0.0313286 0.0243686 0.0284689 0.0327926 0.0356544 0.0401566
          0.0373202 0.0420323 0.0384455 0.0425659 0.046793 0.04058 0.0427055 0.0449287 0.0493896 0.0472814 0.0511121 0.0555093
          0.0539476 0.0519752 0.0567708 0.0585877 0.0616525 0.0448172 0.0496186 0.0545435 0.04691 0.0519349 0.0570888 0.0595751
          0.0646967 0.062354 0.0677132 0.000250696 0 0.000986001 0.00218106 0 0.000261162 0.000271463 0.00102716 0.00227211
          0.00106768 0.00381142 0.00585308 0.00397054 0.00236173 0.00412715 0.00609741 0.00633791 0 0 0.000281578 0.00110746
          0.00244973 0.000291486 0 0.00114643 0.00253593 0.00428093 0.00657407 0.00443156 0.00680539 0.00828239 0.0110761 0.0142115
          0.00862813 0.00896844 0.0115385 0.0148047 0.0119936 0.017666 0.0214177 0.0184034 0.0153886 0.0191291 0.0223115 0.0231912
          0.0093026 0.0124404 0.0159619 0.00962992 0.0128781 0.0165234 0.0198417 0.0240551 0.0205397 0.0249012 0.000301167 0
          0.00118451 0.00262015 0 0.000310602 0.000319771 0.00122161 0.00270223 0.00125768 0.00457875 0.00703141 0.00472218 0.00278201
          0.00486158 0.00725166 0.00746573 0 0 0.000328657 0.00129263 0.00285932 0.000337244 0 0.0013264 0.00293402
          0.00499668 0.0076732 0.00512722 0.00787366 0.00994973 0.0133058 0.0170721 0.0102614 0.0105643 0.0137226 0.0176068 0.0141276
          0.0212217 0.0257278 0.0218862 0.0181265 0.0225321 0.0265334 0.0273163 0.0108579 0.0145202 0.0186301 0.0111415 0.0148995
          0.0191167 0.0231581 0.028075 0.0237629 0.0288081 0.0254447 0.0297259 0.0342403 0.0265065 0.0275515 0.0309661 0.0356685
          0.0321867 0.0389674 0.043887 0.0405924 0.0370742 0.0421916 0.0457166 0.0475172 0.0285775 0.0333852 0.0384543 0.0295826
          0.034559 0.039806 0.0437618 0.0492849 0.0452996 0.0510162 0.0489793 0.054225 0.0596052 0.0510205 0.0530293 0.056484
          0.0620872 0.0587069 0.0651012 0.0706951 0.0678108 0.0645295 0.0704769 0.0736359 0.0765292 0.0550013 0.0608891 0.0669269
          0.0569326 0.0630261 0.0692746 0.0730938 0.0793691 0.0756561 0.0821496 0.0305645 0.0357058 0.0411266 0.0315213 0.0324512
          0.0368234 0.0424134 0.0379094 0.046802 0.0527075 0.0482659 0.043664 0.0496884 0.0543554 0.0559567 0.0333524 0.0389618
          0.0448758 0.0342231 0.0399787 0.0460466 0.0510669 0.0575084 0.0523986 0.0590074 0.0588192 0.0651136 0.0715676 0.0606573
          0.0624434 0.0671473 0.0738016 0.0691234 0.0781588 0.0848651 0.0805968 0.075972 0.0829654 0.0875103 0.0900799 0.064174
          0.0710379 0.0780748 0.0658458 0.0728874 0.080106 0.08526 0.0925692 0.0874763 0.0949733 0.0434205 0.0466918 0.0499915
          0.0466918 0.0499915 0.0502088 0.0537561 0.0537561 0.0533104 0.0566398 0.057324 0.0575531 0.0613717 0.0609028 0.0652019
          0.0533104 0.057324 0.0613717 0.0566398 0.0609028 0.0652019 0.0654424 0.0695251 0.0695251 0.0738607 0.0599709 0.0632954
          0.0666052 0.0644833 0.0690337 0.0680565 0.0716137 0.0728573 0.0698924 0.0731494 0.0751463 0.0766635 0.0804433 0.0786463
          0.0841878 0.0736092 0.0776844 0.0817406 0.0781976 0.0825246 0.0868312 0.0857683 0.0897582 0.0911071 0.0953424 0.0599709
          0.0644833 0.0690337 0.0632954 0.0666052 0.0680565 0.0728573 0.0716137 0.0736092 0.0781976 0.0776844 0.0766635 0.0817406
          0.0825246 0.0868312 0.0698924 0.0751463 0.0804433 0.0731494 0.0786463 0.0841878 0.0857683 0.0911071 0.0897582 0.0953424
          0.0827868 0.0873653 0.0919218 0.0873653 0.0919218 0.0921943 0.0969996 0.0969996 0.0964454 0.100926 0.10177 0.102052
          0.107067 0.106494 0.112033 0.0964454 0.10177 0.107067 0.100926 0.106494 0.112033 0.112325 0.11753 0.11753
          0.122973 0.076369 0.0795439 0.0826674 0.0821057 0.0878886 0.085517 0.0888727 0.0915375 0.085733 0.0887342 0.0921659
          0.0951268 0.0986488 0.0953897 0.102096 0.0937011 0.0975885 0.101412 0.0995276 0.103653 0.107711 0.105163 0.108835
          0.111692 0.115588 0.0916651 0.0945198 0.0972928 0.0985377 0.105463 0.101604 0.104582 0.108741 0.0999788 0.102573
          0.107466 0.111925 0.115008 0.110251 0.117985 0.11242 0.115911 0.119301 0.119391 0.123094 0.126689 0.122583
          0.125753 0.130171 0.133532 0.105353 0.109716 0.114007 0.111161 0.116939 0.115761 0.120284 0.121774 0.118216
          0.122335 0.124721 0.126527 0.131188 0.129061 0.135749 0.122672 0.127739 0.132719 0.128347 0.133643 0.138848
          0.137604 0.142382 0.143952 0.148944 0.126356 0.13027 0.134071 0.133298 0.1402 0.137422 0.141426 0.144532
          0.13775 0.141302 0.145302 0.148736 0.152807 0.149043 0.156735 0.147044 0.151581 0.155984 0.153814 0.158554
          0.163153 0.160246 0.164359 0.167604 0.171898 0.076369 0.0821057 0.0878886 0.0795439 0.0826674 0.085517 0.0915375
          0.0888727 0.0937011 0.0995276 0.0975885 0.0951268 0.101412 0.103653 0.107711 0.085733 0.0921659 0.0986488 0.0887342
          0.0953897 0.102096 0.105163 0.111692 0.108835 0.115588 0.105353 0.111161 0.116939 0.109716 0.114007 0.115761
          0.121774 0.120284 0.122672 0.128347 0.127739 0.126527 0.132719 0.133643 0.138848 0.118216 0.124721 0.131188
          0.122335 0.129061 0.135749 0.137604 0.143952 0.142382 0.148944 0.0916651 0.0985377 0.105463 0.0945198 0.0972928
          0.101604 0.108741 0.104582 0.11242 0.119391 0.115911 0.111925 0.119301 0.123094 0.126689 0.0999788 0.107466
          0.115008 0.102573 0.110251 0.117985 0.122583 0.130171 0.125753 0.133532 0.126356 0.133298 0.1402 0.13027
          0.134071 0.137422 0.144532 0.141426 0.147044 0.153814 0.151581 0.148736 0.155984 0.158554 0.163153 0.13775
          0.145302 0.152807 0.141302 0.149043 0.156735 0.160246 0.167604 0.164359 0.171898 0.133952 0.139473 0.144899
          0.139473 0.144899 0.145215 0.150858 0.150858 0.150219 0.155421 0.15639 0.156714 0.162453 0.161799 0.168064
          0.150219 0.15639 0.162453 0.155421 0.161799 0.168064 0.168394 0.174202 0.174202 0.180203 0.160496 0.165434
          0.170226 0.167075 0.173536 0.172207 0.177187 0.178859 0.174862 0.179334 0.182004 0.184022 0.189017 0.186651
          0.193834 0.179866 0.185374 0.190717 0.186053 0.191741 0.197258 0.195884 0.200867 0.202593 0.207737 0.160496
          0.167075 0.173536 0.165434 0.170226 0.172207 0.178859 0.177187 0.179866 0.186053 0.185374 0.184022 0.190717
          0.191741 0.197258 0.174862 0.182004 0.189017 0.179334 0.186651 0.193834 0.195884 0.202593 0.200867 0.207737
          0.192083 0.197947 0.203632 0.197947 0.203632 0.20398 0.209829 0.209829 0.20913 0.21443 0.215483 0.215835
          0.221641 0.220934 0.227237 0.20913 0.215483 0.221641 0.21443 0.220934 0.227237 0.227593 0.233328 0.233328
          0.239197 0.000345514 0 0.000353453 0 0.000361046 0.00135893 0.00300597 0.00139015 0.00142001 0.00307504 0
          0.000368279 0 0.000375138 0 0.00144846 0.0031411 0.00320402 0.00147544 0.0032637 0.00525296 0.00537365 0.00548909
          0.00806674 0.00825208 0.00842934 0.00559905 0.00570333 0.0085982 0.00875835 0.000381613 0 0.000387691 0 0.000393361
          0.0015009 0.00332003 0.00152481 0.00154711 0.0033729 0 0.000398614 0 0.000403441 0 0.00156777 0.00342224
          0.00346794 0.00158675 0.00350993 0.00580177 0.00589417 0.00598037 0.0089095 0.00905139 0.00918377 0.00606024 0.00613362 0.00930641
          0.00941909 0.0114147 0.011677 0.0119278 0.0152648 0.0195854 0.0156155 0.0159509 0.0200353 0.0121667 0.0123933 0.0162704
          0.0204656 0.0208754 0.0165734 0.0212642 0.0243454 0.0249046 0.0254393 0.0295142 0.030192 0.0308401 0.0259487 0.0264318
          0.0314575 0.0320431 0.0126072 0.012808 0.0129953 0.0168594 0.021631 0.0171278 0.0173783 0.0219754 0.0131688 0.0133282
          0.0176103 0.0222967 0.0225944 0.0178235 0.0228679 0.0268878 0.0273158 0.0277152 0.0325957 0.0331145 0.0335985 0.0280851
          0.028425 0.0340468 0.0344588 0.000407833 0 0.000411783 0 0.000415284 0.00160403 0.00354814 0.00161956 0.00163333
          0.00358251 0 0.00041833 0 0.000420917 0 0.00164531 0.00361296 0.00363947 0.00165549 0.00366197 0.00620039
          0.00626044 0.00631367 0.00952163 0.00961384 0.00969557 0.00635998 0.0063993 0.00976669 0.00982707 0.000423039 0 0.000424693
          0 0.000425876 0.00166383 0.00368043 0.00167034 0.00167499 0.00369482 0 0.000426587 0 0.000426824 0
          0.00167779 0.00370511 0.0037113 0.00167872 0.00371336 0.00643156 0.0064567 0.00647469 0.0098766 0.00991522 0.00994285 0.0064855
          0.00648911 0.00995944 0.00996498 0.0134733 0.0136038 0.0137194 0.0180175 0.0231168 0.018192 0.0183466 0.0233406 0.0138201
          0.0139055 0.0184811 0.023539 0.0237116 0.0185954 0.0238581 0.0287343 0.0290124 0.0292589 0.0348336 0.0351707 0.0354695
          0.0294734 0.0296555 0.0357294 0.0359501 0.0139756 0.0140302 0.0140693 0.0186891 0.0239783 0.0187622 0.0188144 0.024072
          0.0140928 0.0141006 0.0188458 0.0241391 0.0241794 0.0188563 0.0241928 0.0298049 0.0299214 0.0300048 0.0361312 0.0362724
          0.0363733 0.0300548 0.0300715 0.036434 0.0364542 0.0350616 0.0358666 0.0366364 0.040958 0.0471741 0.041898 0.042797
          0.0482564 0.0373696 0.038065 0.0436532 0.0492913 0.0502772 0.0444653 0.051212 0.0536812 0.0549122 0.0560894 0.060451
          0.0618365 0.0631614 0.0572106 0.0582738 0.0644232 0.0656198 0.0387213 0.0393374 0.0399122 0.0452317 0.0520943 0.0459511
          0.0466222 0.0529225 0.0404446 0.0409338 0.0472439 0.053695 0.0544107 0.0478151 0.0550682 0.0592772 0.060219 0.0610976
          0.066749 0.0678088 0.0687975 0.0619115 0.0626592 0.0697133 0.0705547 0.0674558 0.0690009 0.0704783 0.0746683 0.0820618
          0.0763773 0.0780115 0.0839386 0.0718853 0.0732196 0.0795677 0.085733 0.0874418 0.0810434 0.089062 0.0896102 0.0916578
          0.0936153 0.0972879 0.0995087 0.101632 0.0954795 0.0972468 0.103653 0.10557 0.0744786 0.0756603 0.0767626 0.0824358
          0.0905908 0.0837427 0.0849617 0.0920255 0.0777837 0.0787217 0.0860907 0.0933638 0.0946032 0.087128 0.0957418 0.0989144
          0.100479 0.101939 0.107378 0.109075 0.110657 0.103291 0.104532 0.112123 0.113469 0.0413789 0.0417792 0.042134
          0.0483348 0.0556665 0.0488022 0.0492165 0.0562045 0.0424427 0.0427048 0.0495769 0.0566813 0.0570962 0.0498829 0.0574484
          0.0633396 0.0639514 0.0644936 0.0713202 0.0720086 0.0726186 0.0649653 0.0653658 0.0731494 0.0736 0.0429198 0.0430874
          0.0432073 0.050134 0.0577374 0.0503297 0.0504697 0.0579627 0.0432794 0.0433034 0.0505538 0.0581238 0.0582206 0.0505818
          0.0582529 0.0656944 0.0659505 0.0661338 0.0739697 0.0742579 0.0744641 0.0662439 0.0662806 0.0745879 0.0746292 0.0795751
          0.0803425 0.0810226 0.0880716 0.0967777 0.0889201 0.0896721 0.097709 0.0816143 0.0821166 0.0903263 0.0985344 0.0992525
          0.0908817 0.099862 0.105662 0.106677 0.107577 0.114693 0.115794 0.11677 0.10836 0.109025 0.117619 0.118339
          0.0825287 0.0828499 0.0830798 0.0913373 0.100362 0.0916925 0.0919465 0.100752 0.0832178 0.0832638 0.0920992 0.101031
          0.101198 0.0921501 0.101254 0.10957 0.109995 0.110299 0.11893 0.119391 0.11972 0.110482 0.110543 0.119918
          0.119984 0.000426587 0 0.000425876 0 0.000424693 0.00167779 0.0037113 0.00167499 0.00167034 0.00370511 0
          0.000423039 0 0.000420917 0 0.00166383 0.00369482 0.00368043 0.00165549 0.00366197 0.0064855 0.00647469 0.0064567
          0.00995944 0.00994285 0.00991522 0.00643156 0.0063993 0.0098766 0.00982707 0.00041833 0 0.000415284 0 0.000411783
          0.00164531 0.00363947 0.00163333 0.00161956 0.00361296 0 0.000407833 0 0.000403441 0 0.00160403 0.00358251
          0.00354814 0.00158675 0.00350993 0.00635998 0.00631367 0.00626044 0.00976669 0.00969557 0.00961384 0.00620039 0.00613362 0.00952163
          0.00941909 0.0140928 0.0140693 0.0140302 0.0188458 0.0241794 0.0188144 0.0187622 0.0241391 0.0139756 0.0139055 0.0186891
          0.024072 0.0239783 0.0185954 0.0238581 0.0300548 0.0300048 0.0299214 0.036434 0.0363733 0.0362724 0.0298049 0.0296555
          0.0361312 0.0359501 0.0138201 0.0137194 0.0136038 0.0184811 0.0237116 0.0183466 0.018192 0.023539 0.0134733 0.0133282
          0.0180175 0.0233406 0.0231168 0.0178235 0.0228679 0.0294734 0.0292589 0.0290124 0.0357294 0.0354695 0.0351707 0.0287343
          0.028425 0.0348336 0.0344588 0.000398614 0 0.000393361 0 0.000387691 0.00156777 0.00346794 0.00154711 0.00152481
          0.00342224 0 0.000381613 0 0.000375138 0 0.0015009 0.0033729 0.00332003 0.00147544 0.0032637 0.00606024
          0.00598037 0.00589417 0.00930641 0.00918377 0.00905139 0.00580177 0.00570333 0.0089095 0.00875835 0.000368279 0 0.000361046
          0 0.000353453 0.00144846 0.00320402 0.00142001 0.00139015 0.0031411 0 0.000345514 0 0.000337244 0
          0.00135893 0.00307504 0.00300597 0.0013264 0.00293402 0.00559905 0.00548909 0.00537365 0.0085982 0.00842934 0.00825208 0.00525296
          0.00512722 0.00806674 0.00787366 0.0131688 0.0129953 0.012808 0.0176103 0.0225944 0.0173783 0.0171278 0.0222967 0.0126072
          0.0123933 0.0168594 0.0219754 0.021631 0.0165734 0.0212642 0.0280851 0.0277152 0.0273158 0.0340468 0.0335985 0.0331145
          0.0268878 0.0264318 0.0325957 0.0320431 0.0121667 0.0119278 0.011677 0.0162704 0.0208754 0.0159509 0.0156155 0.0204656
          0.0114147 0.0111415 0.0152648 0.0200353 0.0195854 0.0148995 0.0191167 0.0259487 0.0254393 0.0249046 0.0314575 0.0308401
          0.030192 0.0243454 0.0237629 0.0295142 0.0288081 0.0432794 0.0432073 0.0430874 0.0505538 0.0582206 0.0504697 0.0503297
          0.0581238 0.0429198 0.0427048 0.050134 0.0579627 0.0577374 0.0498829 0.0574484 0.0662439 0.0661338 0.0659505 0.0745879
          0.0744641 0.0742579 0.0656944 0.0653658 0.0739697 0.0736 0.0424427 0.042134 0.0417792 0.0495769 0.0570962 0.0492165
          0.0488022 0.0566813 0.0413789 0.0409338 0.0483348 0.0562045 0.0556665 0.0478151 0.0550682 0.0649653 0.0644936 0.0639514
          0.0731494 0.0726186 0.0720086 0.0633396 0.0626592 0.0713202 0.0705547 0.0832178 0.0830798 0.0828499 0.0920992 0.101198
          0.0919465 0.0916925 0.101031 0.0825287 0.0821166 0.0913373 0.100752 0.100362 0.0908817 0.099862 0.110482 0.110299
          0.109995 0.119918 0.11972 0.119391 0.10957 0.109025 0.11893 0.118339 0.0816143 0.0810226 0.0803425 0.0903263
          0.0992525 0.0896721 0.0889201 0.0985344 0.0795751 0.0787217 0.0880716 0.097709 0.0967777 0.087128 0.0957418 0.10836
          0.107577 0.106677 0.117619 0.11677 0.115794 0.105662 0.104532 0.114693 0.113469 0.0404446 0.0399122 0.0393374
          0.0472439 0.0544107 0.0466222 0.0459511 0.053695 0.0387213 0.038065 0.0452317 0.0529225 0.0520943 0.0444653 0.051212
          0.0619115 0.0610976 0.060219 0.0697133 0.0687975 0.0678088 0.0592772 0.0582738 0.066749 0.0656198 0.0373696 0.0366364
          0.0358666 0.0436532 0.0502772 0.042797 0.041898 0.0492913 0.0350616 0.0342231 0.040958 0.0482564 0.0471741 0.0399787
          0.0460466 0.0572106 0.0560894 0.0549122 0.0644232 0.0631614 0.0618365 0.0536812 0.0523986 0.060451 0.0590074 0.0777837
          0.0767626 0.0756603 0.0860907 0.0946032 0.0849617 0.0837427 0.0933638 0.0744786 0.0732196 0.0824358 0.0920255 0.0905908
          0.0810434 0.089062 0.103291 0.101939 0.100479 0.112123 0.110657 0.109075 0.0989144 0.0972468 0.107378 0.10557
          0.0718853 0.0704783 0.0690009 0.0795677 0.0874418 0.0780115 0.0763773 0.085733 0.0674558 0.0658458 0.0746683 0.0839386
          0.0820618 0.0728874 0.080106 0.0954795 0.0936153 0.0916578 0.103653 0.101632 0.0995087 0.0896102 0.0874763 0.0972879
          0.0949733 0.10507 0.107466 0.109756 0.112932 0.120851 0.115504 0.117963 0.1236 0.111937 0.114004 0.120303
          0.126227 0.128728 0.122522 0.131099 0.128803 0.131729 0.134525 0.136766 0.139869 0.142833 0.137186 0.139709
          0.145654 0.148328 0.115954 0.117784 0.11949 0.124615 0.133335 0.126579 0.12841 0.135433 0.121071 0.122522
          0.130106 0.137389 0.1392 0.131663 0.140864 0.142088 0.14432 0.146401 0.15085 0.153215 0.15542 0.148328
          0.150097 0.157462 0.159337 0.14472 0.147997 0.151129 0.152642 0.160513 0.156093 0.15939 0.164136 0.154109
          0.156933 0.162528 0.167597 0.17089 0.165501 0.17401 0.168315 0.172107 0.175729 0.176028 0.179986 0.183767
          0.179176 0.18244 0.187364 0.190771 0.159596 0.162094 0.164423 0.168304 0.176952 0.170933 0.173384 0.17971
          0.166578 0.168557 0.175652 0.182281 0.184661 0.177735 0.186845 0.185518 0.188403 0.191093 0.193982 0.196993
          0.199798 0.193582 0.195867 0.202395 0.204778 0.123842 0.125029 0.126081 0.13308 0.142377 0.134353 0.135482
          0.143737 0.126996 0.127773 0.136463 0.144942 0.14599 0.137296 0.14688 0.151706 0.153153 0.154435 0.161042
          0.162574 0.163932 0.155549 0.156495 0.165113 0.166115 0.12841 0.128907 0.129262 0.13798 0.14761 0.138512
          0.138893 0.148178 0.129475 0.129546 0.139122 0.148585 0.14883 0.139199 0.148911 0.157271 0.157876 0.158309
          0.166937 0.167578 0.168036 0.158569 0.158655 0.168311 0.168403 0.170357 0.171975 0.173408 0.179629 0.188832
          0.181331 0.182838 0.190617 0.174655 0.175712 0.184149 0.192198 0.193573 0.185262 0.19474 0.197944 0.199811
          0.201464 0.206944 0.208891 0.210615 0.202902 0.204122 0.212114 0.213387 0.17658 0.177256 0.17774 0.186175
          0.195697 0.186886 0.187395 0.196442 0.17803 0.178127 0.1877 0.196976 0.197296 0.187802 0.197403 0.205122
          0.205902 0.20646 0.21443 0.215243 0.215824 0.206795 0.206906 0.216173 0.216289 0.183635 0.187757 0.191693
          0.191119 0.198465 0.195401 0.199489 0.202902 0.195437 0.198983 0.203377 0.207138 0.211167 0.207059 0.214981
          0.205657 0.210245 0.214626 0.212681 0.217416 0.221936 0.218791 0.222734 0.226234 0.230302 0.202325 0.205458
          0.208377 0.210529 0.218575 0.213781 0.216811 0.221944 0.211079 0.213558 0.219615 0.225083 0.227986 0.222188
          0.23065 0.226449 0.229931 0.233174 0.234134 0.237725 0.24107 0.236174 0.238927 0.244163 0.247002 0.219523
          0.224401 0.229056 0.226171 0.232613 0.231186 0.235972 0.23776 0.233482 0.23767 0.240521 0.242672 0.247339
          0.244825 0.251756 0.238837 0.244112 0.249143 0.244833 0.25023 0.255376 0.253925 0.258448 0.260267 0.264893
          0.241615 0.245312 0.248755 0.24888 0.255915 0.252678 0.256216 0.259811 0.251939 0.25486 0.259487 0.263439
          0.266793 0.262487 0.26987 0.262708 0.266698 0.270412 0.269248 0.273328 0.277125 0.273847 0.276997 0.280636